
     Program PWSCF v.6.7MaX starts on 27Mar2021 at 23:24:47 

     This program is part of the open-source Quantum ESPRESSO suite
     for quantum simulation of materials; please cite
         "P. Giannozzi et al., J. Phys.:Condens. Matter 21 395502 (2009);
         "P. Giannozzi et al., J. Phys.:Condens. Matter 29 465901 (2017);
         "P. Giannozzi et al., J. Chem. Phys. 152 154105 (2020);
          URL http://www.quantum-espresso.org", 
     in publications or presentations arising from this work. More details at
     http://www.quantum-espresso.org/quote

     Parallel version (MPI), running on    16 processors

     MPI processes distributed on     1 nodes
     R & G space division:  proc/nbgrp/npool/nimage =      16
     Reading input from Crdimer0.65.scf.in

     Current dimensions of program PWSCF are:
     Max number of different atomic species (ntypx) = 10
     Max number of k-points (npk) =  40000
     Max angular momentum in pseudopotentials (lmaxx) =  3
     file N.pbe-n-kjpaw_psl.1.0.0.UPF: wavefunction(s)  2S renormalized
     file Cr.pbe-spn-kjpaw_psl.1.0.0.UPF: wavefunction(s)  3S 3P 3D renormalized
     file Cr.pbe-spn-kjpaw_psl.1.0.0.UPF: wavefunction(s)  3S 3P 3D renormalized

     --------------------------------------------
     Parameters for DFT-D3 Dispersion Correction:
     --------------------------------------------
       Reference C6 values for interpolation: 

         atom   Coordination number   C6
         B          0.000           214.36
         B          0.971           150.74
         B          1.944           106.23
         B          2.913            62.89
         B          4.586            56.06
         N          0.000            50.54
         N          0.994            44.25
         N          2.014            39.35
         N          2.990            31.16
         Cr1        0.000          1381.48
         Cr1        1.827           571.38
         Cr1       10.619           306.69
         Cr2        0.000          1381.48
         Cr2        1.827           571.38
         Cr2       10.619           306.69

       Values used:

         atom   Coordination number  R0_AB[au]  C6      C8
         B          3.336            3.039     62.89   2506.00
         B          3.385            3.039     62.86   2504.58
         B          3.335            3.039     62.89   2506.01
         B          3.336            3.039     62.89   2505.99
         B          3.338            3.039     62.89   2505.94
         B          3.339            3.039     62.89   2505.92
         N          3.134            2.478     31.22    688.69
         N          3.288            2.478     31.18    687.85
         N          3.134            2.478     31.22    688.70
         N          3.134            2.478     31.22    688.70
         N          3.141            2.478     31.22    688.64
         N          3.139            2.478     31.22    688.65
         N          3.139            2.478     31.22    688.65
         N          3.141            2.478     31.22    688.64
         N          3.134            2.478     31.22    688.69
         B          3.399            3.039     62.84   2504.05
         B          3.385            3.039     62.86   2504.58
         B          3.339            3.039     62.89   2505.92
         B          3.338            3.039     62.89   2505.94
         B          3.336            3.039     62.89   2506.00
         B          3.399            3.039     62.84   2504.05
         N          3.139            2.478     31.22    688.65
         B          3.336            3.039     62.89   2505.98
         B          3.408            3.039     62.83   2503.67
         B          3.336            3.039     62.89   2506.00
         N          3.139            2.478     31.22    688.65
         N          3.288            2.478     31.18    687.85
         N          3.139            2.478     31.22    688.65
         N          3.139            2.478     31.22    688.65
         N          3.134            2.478     31.22    688.70
         N          3.134            2.478     31.22    688.70
         B          3.336            3.039     62.89   2506.00
         Cr1        0.971            3.252    766.10  70702.31
         Cr2        0.971            3.252    766.10  70702.24

         Molecular C6 ( Ry / a.u.^6 ) =     71300.94


     Subspace diagonalization in iterative solution of the eigenvalue problem:
     one sub-group per band group will be used
     scalapack distributed-memory algorithm (size of sub-group:  4*  4 procs)

 
     Parallelization info
     --------------------
     sticks:   dense  smooth     PW     G-vecs:    dense   smooth      PW
     Min         706     296     80               108834    29636    4252
     Max         707     297     81               108839    29645    4263
     Sum       11311    4741   1285              1741401   474235   68095
 
     Using Slab Decomposition
 


     bravais-lattice index     =            4
     lattice parameter (alat)  =      18.9275  a.u.
     unit-cell volume          =   10553.3021 (a.u.)^3
     number of atoms/cell      =           34
     number of atomic types    =            4
     number of electrons       =       156.00
     number of Kohn-Sham states=           94
     kinetic-energy cutoff     =      48.0000  Ry
     charge density cutoff     =     457.0000  Ry
     scf convergence threshold =      1.0E-07
     mixing beta               =       0.5000
     number of iterations used =            8  plain     mixing
     Exchange-correlation= SLA  PW   PBX  PBC
                           (   1   4   3   4   0   0   0)

     celldm(1)=  18.927497  celldm(2)=   0.000000  celldm(3)=   1.797125
     celldm(4)=   0.000000  celldm(5)=   0.000000  celldm(6)=   0.000000

     crystal axes: (cart. coord. in units of alat)
               a(1) = (   1.000000   0.000000   0.000000 )  
               a(2) = (  -0.500000   0.866025   0.000000 )  
               a(3) = (   0.000000   0.000000   1.797125 )  

     reciprocal axes: (cart. coord. in units 2 pi/alat)
               b(1) = (  1.000000  0.577350  0.000000 )  
               b(2) = (  0.000000  1.154701  0.000000 )  
               b(3) = (  0.000000  0.000000  0.556444 )  


     PseudoPot. # 1 for B  read from file:
     /home/yueyi/q-e-gpu-qe-gpu-6.7/pseudo/B.pbe-n-kjpaw_psl.1.0.0.UPF
     MD5 check sum: d9c678ba5d3b2fd7b74e61139c9288d8
     Pseudo is Projector augmented-wave + core cor, Zval =  3.0
     Generated using "atomic" code by A. Dal Corso  v.5.1.2
     Shape of augmentation charge: PSQ
     Using radial grid of 1059 points,  4 beta functions with: 
                l(1) =   0
                l(2) =   0
                l(3) =   1
                l(4) =   1
     Q(r) pseudized with 0 coefficients 


     PseudoPot. # 2 for N  read from file:
     /home/yueyi/q-e-gpu-qe-gpu-6.7/pseudo/N.pbe-n-kjpaw_psl.1.0.0.UPF
     MD5 check sum: e0e4e94a9c4025c5b51bd7d8793849bd
     Pseudo is Projector augmented-wave + core cor, Zval =  5.0
     Generated using "atomic" code by A. Dal Corso  v.5.1.2
     Shape of augmentation charge: PSQ
     Using radial grid of 1085 points,  4 beta functions with: 
                l(1) =   0
                l(2) =   0
                l(3) =   1
                l(4) =   1
     Q(r) pseudized with 0 coefficients 


     PseudoPot. # 3 for Cr read from file:
     /home/yueyi/q-e-gpu-qe-gpu-6.7/pseudo/Cr.pbe-spn-kjpaw_psl.1.0.0.UPF
     MD5 check sum: 198f1a2427a48552563eee314eba32ba
     Pseudo is Projector augmented-wave + core cor, Zval = 14.0
     Generated using &quot;atomic&quot; code by A. Dal Corso  v.6.3
     Shape of augmentation charge: PSQ
     Using radial grid of 1183 points,  6 beta functions with: 
                l(1) =   0
                l(2) =   0
                l(3) =   1
                l(4) =   1
                l(5) =   2
                l(6) =   2
     Q(r) pseudized with 0 coefficients 


     PseudoPot. # 4 for Cr read from file:
     /home/yueyi/q-e-gpu-qe-gpu-6.7/pseudo/Cr.pbe-spn-kjpaw_psl.1.0.0.UPF
     MD5 check sum: 198f1a2427a48552563eee314eba32ba
     Pseudo is Projector augmented-wave + core cor, Zval = 14.0
     Generated using &quot;atomic&quot; code by A. Dal Corso  v.6.3
     Shape of augmentation charge: PSQ
     Using radial grid of 1183 points,  6 beta functions with: 
                l(1) =   0
                l(2) =   0
                l(3) =   1
                l(4) =   1
                l(5) =   2
                l(6) =   2
     Q(r) pseudized with 0 coefficients 


     atomic species   valence    mass     pseudopotential
        B              3.00    10.81100     B ( 1.00)
        N              5.00    14.00674     N ( 1.00)
        Cr1           14.00    51.99610     Cr( 1.00)
        Cr2           14.00    51.99610     Cr( 1.00)

     Starting magnetic structure 
     atomic species   magnetization
        B            0.000
        N            0.000
        Cr1          1.000
        Cr2          1.000

     No symmetry found



   Cartesian axes

     site n.     atom                  positions (alat units)
         1           B   tau(   1) = (  -0.1250000   0.2165064   0.8985623  )
         2           B   tau(   2) = (   0.3750000   0.6495191   0.8985623  )
         3           B   tau(   3) = (   0.2500000   0.0000000   0.8985623  )
         4           B   tau(   4) = (   0.7500000   0.0000000   0.8985623  )
         5           B   tau(   5) = (   0.1250000   0.2165064   0.8985623  )
         6           B   tau(   6) = (  -0.3750000   0.6495191   0.8985623  )
         7           N   tau(   7) = (   0.7500005   0.2886748   0.8985623  )
         8           N   tau(   8) = (   0.3750005   0.5051812   0.8985623  )
         9           N   tau(   9) = (   0.3750005   0.0721685   0.8985623  )
        10           N   tau(  10) = (   0.6250005   0.0721685   0.8985623  )
        11           N   tau(  11) = (   0.2500005   0.2886748   0.8985623  )
        12           N   tau(  12) = (   0.6250005   0.5051812   0.8985623  )
        13           N   tau(  13) = (   0.0000005   0.2886748   0.8985623  )
        14           N   tau(  14) = (   0.2500005   0.7216875   0.8985623  )
        15           N   tau(  15) = (  -0.2499995   0.7216875   0.8985623  )
        16           B   tau(  16) = (   0.0000000   0.4330127   0.8985623  )
        17           B   tau(  17) = (   0.1250000   0.6495191   0.8985623  )
        18           B   tau(  18) = (  -0.1250000   0.6495191   0.8985623  )
        19           B   tau(  19) = (   0.3750000   0.2165064   0.8985623  )
        20           B   tau(  20) = (   0.6250000   0.2165064   0.8985623  )
        21           B   tau(  21) = (   0.5000000   0.4330127   0.8985623  )
        22           N   tau(  22) = (   0.5000005   0.2886748   0.8985623  )
        23           B   tau(  23) = (  -0.2500000   0.4330127   0.8985623  )
        24           B   tau(  24) = (   0.2500000   0.4330127   0.8985623  )
        25           B   tau(  25) = (   0.5000000   0.0000000   0.8985623  )
        26           N   tau(  26) = (  -0.1249995   0.5051812   0.8985623  )
        27           N   tau(  27) = (   0.1250005   0.5051812   0.8985623  )
        28           N   tau(  28) = (   0.0000005   0.7216875   0.8985623  )
        29           N   tau(  29) = (   0.5000005   0.7216875   0.8985623  )
        30           N   tau(  30) = (   0.1250005   0.0721685   0.8985623  )
        31           N   tau(  31) = (   0.8750005   0.0721685   0.8985623  )
        32           B   tau(  32) = (   0.0000000   0.0000000   0.8985623  )
        33           Cr1 tau(  33) = (   0.1083335   0.5051812   1.1681310  )
        34           Cr2 tau(  34) = (   0.3916668   0.5051812   1.1681310  )

     number of k points=    15  Gaussian smearing, width (Ry)=  0.0000
                       cart. coord. in units 2pi/alat
        k(    1) = (   0.1666667   0.2886751   0.0000000), wk =   0.0740741
        k(    2) = (   0.1666667  -0.4811252   0.0000000), wk =   0.0740741
        k(    3) = (   0.1666667  -0.0962250   0.0000000), wk =   0.0740741
        k(    4) = (  -0.5000000  -0.8660254   0.0000000), wk =   0.0370370
        k(    5) = (  -0.1666667   0.2886751   0.0000000), wk =   0.0740741
        k(    6) = (   0.3333333   0.0000000   0.0000000), wk =   0.0740741
        k(    7) = (  -0.1666667  -0.4811252   0.0000000), wk =   0.0740741
        k(    8) = (   0.5000000  -0.0962250   0.0000000), wk =   0.0740741
        k(    9) = (  -0.3333333  -0.3849002   0.0000000), wk =   0.0740741
        k(   10) = (   0.5000000   0.0962250   0.0000000), wk =   0.0740741
        k(   11) = (  -0.3333333   0.3849002   0.0000000), wk =   0.0740741
        k(   12) = (  -0.1666667  -0.0962250   0.0000000), wk =   0.0740741
        k(   13) = (  -0.0000000  -0.1924501   0.0000000), wk =   0.0740741
        k(   14) = (   0.5000000  -0.8660254   0.0000000), wk =   0.0370370
        k(   15) = (  -1.0000000   0.0000000   0.0000000), wk =   0.0370370

     Dense  grid:  1741401 G-vectors     FFT dimensions: ( 135, 135, 240)

     Smooth grid:   474235 G-vectors     FFT dimensions: (  90,  90, 160)

     Estimated max dynamical RAM per process >     642.21 MB

     Estimated total dynamical RAM >      10.03 GB
     Generating pointlists ...
     new r_m :   0.0595 (alat units)  1.1269 (a.u.) for type    1
     new r_m :   0.0595 (alat units)  1.1269 (a.u.) for type    2
     new r_m :   0.1114 (alat units)  2.1087 (a.u.) for type    3
     new r_m :   0.1114 (alat units)  2.1087 (a.u.) for type    4

     Initial potential from superposition of free atoms

     starting charge  155.99382, renormalised to  156.00000

     negative rho (up, down):  7.004E-03 4.655E-04
     Starting wfcs are  148 randomized atomic wfcs
     Checking if some PAW data can be deallocated... 

     total cpu time spent up to now is       85.0 secs

     Self-consistent Calculation

     iteration #  1     ecut=    48.00 Ry     beta= 0.50
     Davidson diagonalization with overlap
     ethr =  1.00E-02,  avg # of iterations =  2.7

     negative rho (up, down):  5.087E-03 2.786E-03

     total cpu time spent up to now is      282.1 secs

     total energy              =   -1130.77679860 Ry
     estimated scf accuracy    <      11.21097260 Ry

     total magnetization       =    12.00 Bohr mag/cell
     absolute magnetization    =    12.12 Bohr mag/cell

     iteration #  2     ecut=    48.00 Ry     beta= 0.50
     Davidson diagonalization with overlap
     ethr =  7.19E-03,  avg # of iterations =  2.6

     negative rho (up, down):  1.143E-02 1.120E-02

     total cpu time spent up to now is      465.3 secs

     total energy              =   -1132.37938101 Ry
     estimated scf accuracy    <       5.00708829 Ry

     total magnetization       =     9.11 Bohr mag/cell
     absolute magnetization    =     9.38 Bohr mag/cell

     iteration #  3     ecut=    48.00 Ry     beta= 0.50
     Davidson diagonalization with overlap
     ethr =  3.21E-03,  avg # of iterations =  6.8

     negative rho (up, down):  9.046E-03 9.283E-03

     total cpu time spent up to now is      663.6 secs

     total energy              =   -1133.44627057 Ry
     estimated scf accuracy    <       1.68728700 Ry

     total magnetization       =    10.00 Bohr mag/cell
     absolute magnetization    =    10.17 Bohr mag/cell

     iteration #  4     ecut=    48.00 Ry     beta= 0.50
     Davidson diagonalization with overlap
     ethr =  1.08E-03,  avg # of iterations =  5.3

     negative rho (up, down):  5.200E-03 4.828E-03

     total cpu time spent up to now is      833.9 secs

     total energy              =   -1133.76673312 Ry
     estimated scf accuracy    <       0.25101147 Ry

     total magnetization       =    10.44 Bohr mag/cell
     absolute magnetization    =    10.48 Bohr mag/cell

     iteration #  5     ecut=    48.00 Ry     beta= 0.50
     Davidson diagonalization with overlap
     ethr =  1.61E-04,  avg # of iterations = 10.1

     negative rho (up, down):  6.129E-03 3.817E-03

     total cpu time spent up to now is     1035.7 secs

     total energy              =   -1133.71260645 Ry
     estimated scf accuracy    <       1.05706532 Ry

     total magnetization       =    10.00 Bohr mag/cell
     absolute magnetization    =    10.01 Bohr mag/cell

     iteration #  6     ecut=    48.00 Ry     beta= 0.50
     Davidson diagonalization with overlap
     ethr =  1.61E-04,  avg # of iterations =  6.4

     negative rho (up, down):  4.044E-03 4.079E-03

     total cpu time spent up to now is     1219.6 secs

     total energy              =   -1133.78451795 Ry
     estimated scf accuracy    <       0.17607979 Ry

     total magnetization       =    10.00 Bohr mag/cell
     absolute magnetization    =    10.01 Bohr mag/cell

     iteration #  7     ecut=    48.00 Ry     beta= 0.50
     Davidson diagonalization with overlap
     ethr =  1.13E-04,  avg # of iterations =  6.9

     negative rho (up, down):  3.256E-03 3.806E-03

     total cpu time spent up to now is     1400.6 secs

     total energy              =   -1133.81087987 Ry
     estimated scf accuracy    <       0.03319856 Ry

     total magnetization       =    10.00 Bohr mag/cell
     absolute magnetization    =    10.02 Bohr mag/cell

     iteration #  8     ecut=    48.00 Ry     beta= 0.50
     Davidson diagonalization with overlap
     ethr =  2.13E-05,  avg # of iterations =  4.6

     negative rho (up, down):  3.137E-03 3.757E-03

     total cpu time spent up to now is     1562.5 secs

     total energy              =   -1133.81268862 Ry
     estimated scf accuracy    <       0.00634399 Ry

     total magnetization       =    10.00 Bohr mag/cell
     absolute magnetization    =    10.02 Bohr mag/cell

     iteration #  9     ecut=    48.00 Ry     beta= 0.50
     Davidson diagonalization with overlap
     ethr =  4.07E-06,  avg # of iterations = 10.6

     negative rho (up, down):  3.170E-03 3.777E-03

     total cpu time spent up to now is     1765.2 secs

     total energy              =   -1133.81346226 Ry
     estimated scf accuracy    <       0.00143325 Ry

     total magnetization       =    10.00 Bohr mag/cell
     absolute magnetization    =    10.01 Bohr mag/cell

     iteration # 10     ecut=    48.00 Ry     beta= 0.50
     Davidson diagonalization with overlap
     ethr =  9.19E-07,  avg # of iterations =  3.0

     negative rho (up, down):  3.116E-03 3.775E-03

     total cpu time spent up to now is     1921.8 secs

     total energy              =   -1133.81348588 Ry
     estimated scf accuracy    <       0.00086354 Ry

     total magnetization       =    10.00 Bohr mag/cell
     absolute magnetization    =    10.01 Bohr mag/cell

     iteration # 11     ecut=    48.00 Ry     beta= 0.50
     Davidson diagonalization with overlap
     c_bands:  1 eigenvalues not converged
     c_bands:  1 eigenvalues not converged
     ethr =  5.54E-07,  avg # of iterations =  5.6

     negative rho (up, down):  3.119E-03 3.783E-03

     total cpu time spent up to now is     2082.3 secs

     total energy              =   -1133.81355515 Ry
     estimated scf accuracy    <       0.00018170 Ry

     total magnetization       =    10.00 Bohr mag/cell
     absolute magnetization    =    10.01 Bohr mag/cell

     iteration # 12     ecut=    48.00 Ry     beta= 0.50
     Davidson diagonalization with overlap
     c_bands:  1 eigenvalues not converged
     ethr =  1.16E-07,  avg # of iterations =  5.6

     negative rho (up, down):  3.115E-03 3.793E-03

     total cpu time spent up to now is     2248.7 secs

     total energy              =   -1133.81357953 Ry
     estimated scf accuracy    <       0.00005214 Ry

     total magnetization       =    10.00 Bohr mag/cell
     absolute magnetization    =    10.01 Bohr mag/cell

     iteration # 13     ecut=    48.00 Ry     beta= 0.50
     Davidson diagonalization with overlap
     ethr =  3.34E-08,  avg # of iterations =  4.0

     negative rho (up, down):  3.106E-03 3.797E-03

     total cpu time spent up to now is     2410.0 secs

     total energy              =   -1133.81359024 Ry
     estimated scf accuracy    <       0.00001181 Ry

     total magnetization       =    10.00 Bohr mag/cell
     absolute magnetization    =    10.01 Bohr mag/cell

     iteration # 14     ecut=    48.00 Ry     beta= 0.50
     Davidson diagonalization with overlap
     ethr =  7.57E-09,  avg # of iterations =  3.4

     negative rho (up, down):  3.104E-03 3.801E-03

     total cpu time spent up to now is     2568.2 secs

     total energy              =   -1133.81359350 Ry
     estimated scf accuracy    <       0.00000166 Ry

     total magnetization       =    10.00 Bohr mag/cell
     absolute magnetization    =    10.01 Bohr mag/cell

     iteration # 15     ecut=    48.00 Ry     beta= 0.50
     Davidson diagonalization with overlap
     ethr =  1.06E-09,  avg # of iterations =  5.1

     negative rho (up, down):  3.103E-03 3.802E-03

     total cpu time spent up to now is     2741.7 secs

     total energy              =   -1133.81359462 Ry
     estimated scf accuracy    <       0.00000040 Ry

     total magnetization       =    10.00 Bohr mag/cell
     absolute magnetization    =    10.01 Bohr mag/cell

     iteration # 16     ecut=    48.00 Ry     beta= 0.50
     Davidson diagonalization with overlap
     ethr =  2.56E-10,  avg # of iterations =  3.0

     negative rho (up, down):  3.103E-03 3.803E-03
 
     Magnetic moment per site:
     atom:    1    charge:    0.8803    magn:    0.0006    constr:    0.0000
     atom:    2    charge:    0.8807    magn:    0.0022    constr:    0.0000
     atom:    3    charge:    0.8802    magn:    0.0003    constr:    0.0000
     atom:    4    charge:    0.8799    magn:    0.0005    constr:    0.0000
     atom:    5    charge:    0.8799    magn:    0.0006    constr:    0.0000
     atom:    6    charge:    0.8806    magn:    0.0005    constr:    0.0000
     atom:    7    charge:    2.8608    magn:    0.0011    constr:    0.0000
     atom:    8    charge:    2.8622    magn:    0.0051    constr:    0.0000
     atom:    9    charge:    2.8608    magn:    0.0002    constr:    0.0000
     atom:   10    charge:    2.8608    magn:    0.0006    constr:    0.0000
     atom:   11    charge:    2.8603    magn:    0.0047    constr:    0.0000
     atom:   12    charge:    2.8607    magn:    0.0025    constr:    0.0000
     atom:   13    charge:    2.8594    magn:    0.0041    constr:    0.0000
     atom:   14    charge:    2.8591    magn:    0.0052    constr:    0.0000
     atom:   15    charge:    2.8599    magn:   -0.0000    constr:    0.0000
     atom:   16    charge:    0.8818    magn:    0.0021    constr:    0.0000
     atom:   17    charge:    0.8804    magn:    0.0022    constr:    0.0000
     atom:   18    charge:    0.8803    magn:    0.0005    constr:    0.0000
     atom:   19    charge:    0.8793    magn:    0.0006    constr:    0.0000
     atom:   20    charge:    0.8797    magn:    0.0006    constr:    0.0000
     atom:   21    charge:    0.8816    magn:    0.0021    constr:    0.0000
     atom:   22    charge:    2.8607    magn:    0.0041    constr:    0.0000
     atom:   23    charge:    0.8801    magn:    0.0007    constr:    0.0000
     atom:   24    charge:    0.8792    magn:    0.0033    constr:    0.0000
     atom:   25    charge:    0.8797    magn:    0.0006    constr:    0.0000
     atom:   26    charge:    2.8595    magn:    0.0025    constr:    0.0000
     atom:   27    charge:    2.8610    magn:    0.0050    constr:    0.0000
     atom:   28    charge:    2.8596    magn:    0.0037    constr:    0.0000
     atom:   29    charge:    2.8594    magn:    0.0037    constr:    0.0000
     atom:   30    charge:    2.8595    magn:    0.0002    constr:    0.0000
     atom:   31    charge:    2.8595    magn:    0.0006    constr:    0.0000
     atom:   32    charge:    0.8800    magn:    0.0006    constr:    0.0000
     atom:   33    charge:   12.3828    magn:    4.1373    constr:    0.0000
     atom:   34    charge:   12.3828    magn:    4.1372    constr:    0.0000

     total cpu time spent up to now is     2901.3 secs

     End of self-consistent calculation

 ------ SPIN UP ------------


          k = 0.1667 0.2887 0.0000 ( 59267 PWs)   bands (ev):

   -72.7161 -72.7081 -44.2189 -44.1710 -44.1636 -44.1384 -44.1005 -44.0924
   -21.3996 -20.8228 -20.7861 -20.2546 -20.2385 -19.7408 -19.7111 -19.2435
   -18.8700 -18.8240 -18.5941 -18.5895 -18.3444 -18.2224 -18.1977 -17.9860
   -12.6328 -12.3537 -12.3476 -11.9653 -11.9517 -11.8004 -11.3446 -11.3203
   -10.5348 -10.5112 -10.2656 -10.2460  -9.7372  -9.7256  -9.0422  -8.9721
    -8.9663  -8.9155  -8.8892  -8.7343  -8.3330  -8.2673  -8.1597  -7.9737
    -7.9642  -7.5851  -7.5743  -7.4747  -7.4218  -7.3505  -7.3395  -7.0948
    -7.0925  -6.7570  -6.6705  -6.2945  -6.2891  -6.0465  -5.5562  -5.5267
    -5.4237  -5.3367  -5.0685  -5.0554  -4.6893  -4.5065  -4.4665  -4.1328
    -2.6860  -1.9030  -1.8855  -1.6879  -1.5749  -1.4320  -1.3867  -1.2965
    -1.2274  -1.1794  -0.9752  -0.5712   0.6746   0.7582   1.0893   1.2037
     1.3089   1.3558   1.4364   1.4829   1.5785   1.9022

          k = 0.1667-0.4811 0.0000 ( 59291 PWs)   bands (ev):

   -72.7161 -72.7081 -44.2189 -44.1710 -44.1636 -44.1384 -44.1005 -44.0924
   -21.2792 -21.0441 -20.8709 -20.3108 -19.9485 -19.6079 -19.4635 -19.3181
   -19.1547 -18.9138 -18.8157 -18.6655 -18.3085 -18.2020 -18.0593 -17.8613
   -12.5006 -12.2648 -12.1867 -12.0393 -11.8307 -11.7953 -11.6894 -11.0828
   -11.0388 -10.7703 -10.6526 -10.0091  -9.8328  -9.4752  -9.2529  -8.9033
    -8.7685  -8.6953  -8.5237  -8.5093  -8.3043  -8.2981  -8.2072  -8.1821
    -7.8407  -7.7614  -7.6377  -7.6030  -7.5452  -7.3051  -7.2045  -7.0348
    -6.7635  -6.5542  -6.3636  -6.2958  -6.1321  -6.0687  -5.9233  -5.9099
    -5.5848  -5.5492  -5.4389  -5.1665  -4.6421  -4.4618  -4.2429  -3.9222
    -2.6826  -1.9048  -1.8846  -1.6846  -1.5705  -1.4390  -1.3880  -1.2953
    -1.2288  -1.1786  -0.9752  -0.5752   0.6117   0.7607   0.9678   1.1017
     1.1679   1.3633   1.4420   1.7384   1.9145   2.0153

          k = 0.1667-0.0962 0.0000 ( 59226 PWs)   bands (ev):

   -72.7161 -72.7081 -44.2188 -44.1710 -44.1635 -44.1384 -44.1005 -44.0924
   -21.4642 -20.6988 -20.4931 -20.4649 -20.1587 -20.1110 -19.9346 -18.9055
   -18.8541 -18.5385 -18.5110 -18.4832 -18.4020 -18.3992 -18.2115 -18.1934
   -12.6561 -12.6480 -12.5506 -11.7324 -11.7085 -11.5680 -11.5656 -11.0701
   -11.0592 -10.0784 -10.0630  -9.8179  -9.5229  -9.5133  -9.3734  -9.3623
    -9.1836  -9.1771  -9.1229  -8.4698  -8.4573  -8.1108  -8.0457  -8.0381
    -7.9813  -7.9071  -7.7812  -7.7195  -7.3619  -7.2338  -7.1019  -7.0312
    -7.0144  -6.9839  -6.6745  -6.6602  -6.3944  -5.5962  -5.4611  -5.2803
    -5.2031  -5.0192  -4.9697  -4.8890  -4.7657  -4.7501  -4.5047  -4.4601
    -2.6893  -1.9015  -1.8863  -1.6909  -1.5826  -1.4258  -1.3854  -1.2972
    -1.2262  -1.1802  -0.9752  -0.5668   0.7018   0.7423   1.0948   1.2095
     1.3060   1.3395   1.4699   1.4955   1.8124   1.8516

          k =-0.5000-0.8660 0.0000 ( 59292 PWs)   bands (ev):

   -72.7162 -72.7081 -44.2189 -44.1711 -44.1636 -44.1384 -44.1005 -44.0924
   -21.2217 -21.1790 -20.6213 -20.5924 -19.6041 -19.5823 -19.5408 -19.5362
   -19.1416 -19.1157 -18.4835 -18.4756 -18.4407 -18.4383 -17.9380 -17.9140
   -12.2357 -12.2262 -12.1941 -12.1914 -12.0323 -12.0020 -11.4773 -11.4567
   -10.3932 -10.3654 -10.2839 -10.2745 -10.2591 -10.2582  -8.8424  -8.7146
    -8.6992  -8.6873  -8.6752  -8.6710  -8.0215  -8.0112  -7.9920  -7.9890
    -7.9624  -7.9588  -7.9469  -7.8964  -7.6346  -7.6130  -6.7667  -6.7382
    -6.6146  -6.5353  -6.4466  -6.4302  -6.3302  -6.3158  -5.8852  -5.8329
    -5.6933  -5.6696  -4.9270  -4.9178  -4.8290  -4.8107  -4.0621  -3.9985
    -2.6694  -1.9026  -1.8793  -1.6837  -1.5754  -1.4326  -1.3900  -1.2933
    -1.2310  -1.1929  -0.9755  -0.7147   0.7582   0.8617   0.9958   1.2403
     1.4335   1.4715   1.4773   1.5640   1.7761   1.8121

          k =-0.1667 0.2887 0.0000 ( 59267 PWs)   bands (ev):

   -72.7161 -72.7081 -44.2189 -44.1710 -44.1636 -44.1384 -44.1005 -44.0924
   -21.3996 -20.8228 -20.7861 -20.2546 -20.2385 -19.7408 -19.7112 -19.2435
   -18.8700 -18.8240 -18.5941 -18.5895 -18.3444 -18.2223 -18.1977 -17.9860
   -12.6328 -12.3537 -12.3476 -11.9653 -11.9517 -11.8004 -11.3446 -11.3203
   -10.5348 -10.5112 -10.2655 -10.2461  -9.7372  -9.7256  -9.0422  -8.9721
    -8.9663  -8.9155  -8.8892  -8.7343  -8.3331  -8.2672  -8.1598  -7.9737
    -7.9642  -7.5851  -7.5744  -7.4747  -7.4218  -7.3504  -7.3395  -7.0949
    -7.0925  -6.7570  -6.6705  -6.2944  -6.2891  -6.0465  -5.5563  -5.5267
    -5.4237  -5.3366  -5.0685  -5.0554  -4.6893  -4.5065  -4.4665  -4.1328
    -2.6860  -1.9030  -1.8855  -1.6879  -1.5749  -1.4320  -1.3867  -1.2965
    -1.2274  -1.1794  -0.9752  -0.5712   0.6746   0.7582   1.0894   1.2037
     1.3089   1.3558   1.4364   1.4828   1.5784   1.9022

          k = 0.3333 0.0000 0.0000 ( 59267 PWs)   bands (ev):

   -72.7162 -72.7081 -44.2189 -44.1711 -44.1635 -44.1384 -44.1005 -44.0924
   -21.3976 -20.8674 -20.7406 -20.2706 -20.2136 -19.7935 -19.6693 -19.2549
   -18.8834 -18.7839 -18.6229 -18.5680 -18.3354 -18.2678 -18.1744 -17.9820
   -12.6271 -12.3756 -12.3291 -11.9862 -11.9426 -11.7912 -11.3751 -11.2902
   -10.5352 -10.5059 -10.2897 -10.2260  -9.7446  -9.7105  -9.0383  -8.9828
    -8.9618  -8.9447  -8.8533  -8.7399  -8.3516  -8.3375  -8.0754  -7.9706
    -7.9579  -7.5928  -7.5628  -7.5022  -7.3752  -7.3649  -7.3222  -7.1199
    -7.0739  -6.8552  -6.6035  -6.2986  -6.2817  -6.0762  -5.5553  -5.5214
    -5.3730  -5.3382  -5.1211  -5.0151  -4.6802  -4.5611  -4.4433  -4.1267
    -2.6773  -1.9008  -1.8810  -1.6872  -1.5819  -1.4271  -1.3881  -1.2946
    -1.2291  -1.1893  -0.9754  -0.6678   0.7179   0.9078   1.1875   1.2422
     1.3222   1.3506   1.4110   1.4683   1.6177   1.9783

          k =-0.1667-0.4811 0.0000 ( 59291 PWs)   bands (ev):

   -72.7161 -72.7081 -44.2189 -44.1710 -44.1636 -44.1384 -44.1005 -44.0924
   -21.2792 -21.0441 -20.8709 -20.3108 -19.9485 -19.6079 -19.4635 -19.3181
   -19.1547 -18.9138 -18.8157 -18.6655 -18.3085 -18.2020 -18.0593 -17.8613
   -12.5006 -12.2648 -12.1867 -12.0393 -11.8308 -11.7953 -11.6894 -11.0828
   -11.0388 -10.7703 -10.6525 -10.0090  -9.8328  -9.4753  -9.2530  -8.9033
    -8.7684  -8.6953  -8.5236  -8.5093  -8.3043  -8.2981  -8.2073  -8.1821
    -7.8407  -7.7615  -7.6377  -7.6030  -7.5452  -7.3051  -7.2045  -7.0348
    -6.7636  -6.5543  -6.3636  -6.2959  -6.1321  -6.0687  -5.9233  -5.9099
    -5.5849  -5.5492  -5.4389  -5.1665  -4.6421  -4.4618  -4.2429  -3.9222
    -2.6826  -1.9048  -1.8846  -1.6846  -1.5705  -1.4390  -1.3880  -1.2953
    -1.2288  -1.1786  -0.9752  -0.5752   0.6117   0.7607   0.9678   1.1017
     1.1679   1.3633   1.4420   1.7384   1.9146   2.0157

          k = 0.5000-0.0962 0.0000 ( 59291 PWs)   bands (ev):

   -72.7162 -72.7081 -44.2188 -44.1710 -44.1636 -44.1384 -44.1005 -44.0924
   -21.2670 -21.0783 -20.8487 -20.3026 -19.9455 -19.6254 -19.4823 -19.2968
   -19.1620 -18.9225 -18.7675 -18.6871 -18.2853 -18.2460 -18.0479 -17.8591
   -12.4909 -12.2697 -12.1791 -12.0609 -11.8554 -11.7594 -11.6982 -11.0846
   -11.0277 -10.7637 -10.6637  -9.9983  -9.8347  -9.4790  -9.2500  -8.8752
    -8.7736  -8.6872  -8.6008  -8.5427  -8.2912  -8.2427  -8.2355  -8.1563
    -7.8218  -7.7634  -7.6356  -7.6071  -7.5225  -7.3121  -7.2076  -7.0255
    -6.7652  -6.6117  -6.3948  -6.2924  -6.0890  -6.0650  -5.9246  -5.9185
    -5.5902  -5.5635  -5.3471  -5.2053  -4.6104  -4.5229  -4.2301  -3.9183
    -2.6694  -1.9026  -1.8793  -1.6836  -1.5774  -1.4326  -1.3899  -1.2930
    -1.2312  -1.1929  -0.9755  -0.7144   0.7219   0.8616   1.0145   1.1763
     1.2015   1.4651   1.5342   1.7908   1.8345   1.9314

          k =-0.3333-0.3849 0.0000 ( 59291 PWs)   bands (ev):

   -72.7161 -72.7081 -44.2188 -44.1710 -44.1636 -44.1384 -44.1005 -44.0924
   -21.2715 -21.0664 -20.8569 -20.3004 -19.9585 -19.6106 -19.4607 -19.3162
   -19.1739 -18.9124 -18.7739 -18.6858 -18.2911 -18.2368 -18.0486 -17.8600
   -12.4970 -12.2569 -12.1903 -12.0524 -11.8328 -11.7902 -11.6947 -11.0845
   -11.0267 -10.7610 -10.6658 -10.0010  -9.8349  -9.4770  -9.2561  -8.8857
    -8.7653  -8.6939  -8.5694  -8.5307  -8.2975  -8.2619  -8.2123  -8.1881
    -7.8222  -7.7581  -7.6513  -7.5923  -7.5154  -7.3122  -7.2111  -7.0646
    -6.7561  -6.5628  -6.3512  -6.3026  -6.1367  -6.0606  -5.9507  -5.9208
    -5.5891  -5.5412  -5.3542  -5.2072  -4.6144  -4.5152  -4.2293  -3.9196
    -2.6738  -1.9037  -1.8817  -1.6841  -1.5738  -1.4351  -1.3892  -1.2940
    -1.2302  -1.1879  -0.9754  -0.6720   0.7025   0.8273   0.9790   1.1047
     1.2538   1.4545   1.4844   1.7694   1.8936   1.9212

          k = 0.5000 0.0962 0.0000 ( 59291 PWs)   bands (ev):

   -72.7162 -72.7081 -44.2188 -44.1710 -44.1636 -44.1384 -44.1005 -44.0924
   -21.2670 -21.0783 -20.8487 -20.3026 -19.9455 -19.6254 -19.4823 -19.2968
   -19.1620 -18.9225 -18.7675 -18.6871 -18.2853 -18.2460 -18.0479 -17.8590
   -12.4908 -12.2697 -12.1790 -12.0609 -11.8554 -11.7594 -11.6982 -11.0845
   -11.0277 -10.7637 -10.6637  -9.9983  -9.8348  -9.4789  -9.2500  -8.8752
    -8.7736  -8.6873  -8.6008  -8.5427  -8.2912  -8.2427  -8.2355  -8.1563
    -7.8218  -7.7634  -7.6357  -7.6071  -7.5225  -7.3122  -7.2075  -7.0255
    -6.7652  -6.6117  -6.3948  -6.2923  -6.0890  -6.0649  -5.9246  -5.9186
    -5.5903  -5.5636  -5.3471  -5.2053  -4.6104  -4.5229  -4.2301  -3.9183
    -2.6694  -1.9026  -1.8793  -1.6836  -1.5774  -1.4326  -1.3899  -1.2930
    -1.2312  -1.1929  -0.9755  -0.7144   0.7219   0.8616   1.0146   1.1763
     1.2015   1.4651   1.5342   1.7908   1.8345   1.9314

          k =-0.3333 0.3849 0.0000 ( 59291 PWs)   bands (ev):

   -72.7161 -72.7081 -44.2188 -44.1710 -44.1636 -44.1384 -44.1005 -44.0924
   -21.2715 -21.0664 -20.8569 -20.3004 -19.9585 -19.6106 -19.4607 -19.3162
   -19.1739 -18.9124 -18.7739 -18.6857 -18.2911 -18.2368 -18.0486 -17.8600
   -12.4970 -12.2568 -12.1903 -12.0524 -11.8328 -11.7902 -11.6947 -11.0845
   -11.0267 -10.7610 -10.6658 -10.0010  -9.8349  -9.4769  -9.2561  -8.8857
    -8.7653  -8.6938  -8.5694  -8.5307  -8.2975  -8.2619  -8.2122  -8.1882
    -7.8222  -7.7581  -7.6513  -7.5923  -7.5154  -7.3122  -7.2112  -7.0646
    -6.7561  -6.5628  -6.3512  -6.3027  -6.1367  -6.0607  -5.9508  -5.9208
    -5.5890  -5.5412  -5.3543  -5.2072  -4.6145  -4.5152  -4.2293  -3.9195
    -2.6738  -1.9037  -1.8817  -1.6841  -1.5738  -1.4351  -1.3892  -1.2940
    -1.2302  -1.1879  -0.9754  -0.6720   0.7025   0.8273   0.9790   1.1047
     1.2538   1.4545   1.4844   1.7694   1.8939   1.9210

          k =-0.1667-0.0962 0.0000 ( 59226 PWs)   bands (ev):

   -72.7161 -72.7081 -44.2188 -44.1710 -44.1635 -44.1384 -44.1005 -44.0924
   -21.4642 -20.6988 -20.4931 -20.4649 -20.1587 -20.1110 -19.9346 -18.9055
   -18.8541 -18.5385 -18.5110 -18.4832 -18.4020 -18.3992 -18.2115 -18.1933
   -12.6561 -12.6480 -12.5506 -11.7324 -11.7085 -11.5680 -11.5657 -11.0701
   -11.0592 -10.0785 -10.0630  -9.8179  -9.5229  -9.5132  -9.3734  -9.3623
    -9.1836  -9.1772  -9.1229  -8.4699  -8.4573  -8.1108  -8.0457  -8.0381
    -7.9812  -7.9072  -7.7812  -7.7195  -7.3619  -7.2338  -7.1019  -7.0312
    -7.0144  -6.9839  -6.6745  -6.6601  -6.3945  -5.5962  -5.4611  -5.2802
    -5.2032  -5.0192  -4.9697  -4.8890  -4.7658  -4.7500  -4.5047  -4.4601
    -2.6893  -1.9015  -1.8863  -1.6909  -1.5826  -1.4258  -1.3854  -1.2972
    -1.2262  -1.1802  -0.9752  -0.5668   0.7018   0.7423   1.0948   1.2095
     1.3060   1.3395   1.4699   1.4956   1.8124   1.8515

          k =-0.0000-0.1925 0.0000 ( 59226 PWs)   bands (ev):

   -72.7161 -72.7081 -44.2188 -44.1711 -44.1636 -44.1384 -44.1005 -44.0924
   -21.4648 -20.6769 -20.5111 -20.4874 -20.1261 -20.1112 -19.9480 -18.8830
   -18.8598 -18.6079 -18.4984 -18.4818 -18.3783 -18.3649 -18.2176 -18.2063
   -12.6738 -12.6293 -12.5517 -11.7292 -11.7165 -11.5823 -11.5393 -11.0724
   -11.0655 -10.0714 -10.0705  -9.8172  -9.5331  -9.4981  -9.3720  -9.3718
    -9.1802  -9.1772  -9.1248  -8.4637  -8.4616  -8.0529  -8.0433  -8.0301
    -7.9854  -7.9159  -7.8497  -7.7592  -7.2710  -7.2441  -7.0968  -7.0280
    -7.0235  -7.0113  -6.6696  -6.6630  -6.3962  -5.5455  -5.4825  -5.2817
    -5.2016  -5.1282  -4.9256  -4.9115  -4.7156  -4.7117  -4.5063  -4.4880
    -2.6936  -1.9030  -1.8882  -1.6911  -1.5792  -1.4282  -1.3847  -1.2981
    -1.2254  -1.1752  -0.9751  -0.5098   0.6235   0.7259   1.0425   1.1925
     1.2711   1.3678   1.4281   1.5371   1.7563   1.8735

          k = 0.5000-0.8660 0.0000 ( 59292 PWs)   bands (ev):

   -72.7162 -72.7081 -44.2189 -44.1711 -44.1636 -44.1384 -44.1005 -44.0924
   -21.2217 -21.1790 -20.6213 -20.5924 -19.6041 -19.5823 -19.5408 -19.5362
   -19.1416 -19.1157 -18.4834 -18.4757 -18.4406 -18.4384 -17.9380 -17.9140
   -12.2357 -12.2261 -12.1943 -12.1914 -12.0323 -12.0019 -11.4772 -11.4567
   -10.3932 -10.3655 -10.2839 -10.2745 -10.2592 -10.2582  -8.8424  -8.7146
    -8.6992  -8.6873  -8.6751  -8.6711  -8.0216  -8.0112  -7.9919  -7.9890
    -7.9624  -7.9588  -7.9470  -7.8964  -7.6346  -7.6131  -6.7666  -6.7381
    -6.6146  -6.5353  -6.4466  -6.4301  -6.3301  -6.3158  -5.8852  -5.8329
    -5.6934  -5.6696  -4.9270  -4.9178  -4.8291  -4.8106  -4.0621  -3.9985
    -2.6694  -1.9026  -1.8793  -1.6837  -1.5754  -1.4326  -1.3900  -1.2933
    -1.2310  -1.1929  -0.9755  -0.7147   0.7582   0.8617   0.9958   1.2403
     1.4335   1.4715   1.4773   1.5639   1.7761   1.8120

          k =-1.0000 0.0000 0.0000 ( 59292 PWs)   bands (ev):

   -72.7162 -72.7081 -44.2189 -44.1711 -44.1636 -44.1384 -44.1005 -44.0924
   -21.2582 -21.1291 -20.6286 -20.6077 -19.5929 -19.5840 -19.5418 -19.5177
   -19.1767 -19.0841 -18.6014 -18.4363 -18.4300 -18.3773 -17.9356 -17.9238
   -12.3164 -12.2128 -12.1650 -12.1371 -12.0235 -12.0121 -11.5166 -11.4250
   -10.4102 -10.4051 -10.2684 -10.2624 -10.2514 -10.2476  -8.8937  -8.7641
    -8.6932  -8.6548  -8.6228  -8.6009  -8.0484  -8.0250  -8.0024  -8.0022
    -7.9913  -7.9340  -7.9257  -7.9242  -7.6807  -7.5756  -6.7496  -6.7433
    -6.5734  -6.5367  -6.4445  -6.4040  -6.3682  -6.2885  -5.9291  -5.8003
    -5.7297  -5.6336  -5.1255  -4.8539  -4.7937  -4.7339  -4.0431  -4.0258
    -2.6869  -1.9048  -1.8852  -1.6848  -1.5688  -1.4406  -1.3876  -1.2959
    -1.2280  -1.1744  -0.9751  -0.5192   0.5753   0.7253   0.9739   1.0430
     1.3739   1.4094   1.5102   1.5255   1.5608   1.8888

 ------ SPIN DOWN ----------


          k = 0.1667 0.2887 0.0000 ( 59267 PWs)   bands (ev):

   -68.5224 -68.5132 -40.0974 -40.0507 -40.0440 -40.0004 -39.9043 -39.8941
   -21.3916 -20.8140 -20.7807 -20.2471 -20.2320 -19.7327 -19.7063 -19.2365
   -18.8606 -18.8187 -18.5878 -18.5838 -18.3366 -18.2164 -18.1934 -17.9800
   -12.6256 -12.3464 -12.3407 -11.9592 -11.9472 -11.7955 -11.3369 -11.3161
   -10.5286 -10.5045 -10.2581 -10.2418  -9.7302  -9.7208  -8.9921  -8.9653
    -8.9603  -8.9091  -8.8858  -8.7293  -8.3288  -8.2172  -8.1363  -7.9689
    -7.9601  -7.5781  -7.5689  -7.4317  -7.3945  -7.3455  -7.3360  -7.0906
    -7.0884  -6.7172  -6.6534  -6.2897  -6.2851  -6.0115  -5.5511  -5.4743
    -5.3991  -5.3324  -5.0425  -5.0332  -4.6547  -4.4839  -4.4505  -4.1089
    -1.2223   0.5180   0.6065   0.8939   0.9798   1.1653   1.1992   1.3009
     1.3809   1.4479   1.4800   1.6903   1.7229   1.7878   1.9734   2.0926
     2.1653   2.1906   2.2266   2.3028   2.3955   2.4287

          k = 0.1667-0.4811 0.0000 ( 59291 PWs)   bands (ev):

   -68.5224 -68.5132 -40.0974 -40.0507 -40.0440 -40.0004 -39.9043 -39.8941
   -21.2701 -21.0383 -20.8638 -20.3035 -19.9418 -19.6010 -19.4567 -19.3115
   -19.1478 -18.9080 -18.8073 -18.6606 -18.3002 -18.1979 -18.0534 -17.8552
   -12.4930 -12.2574 -12.1809 -12.0344 -11.8239 -11.7907 -11.6841 -11.0765
   -11.0319 -10.7629 -10.6480 -10.0022  -9.8272  -9.4695  -9.2474  -8.8410
    -8.7629  -8.6893  -8.5190  -8.4881  -8.2953  -8.2664  -8.2016  -8.1785
    -7.8352  -7.7570  -7.6324  -7.5997  -7.5053  -7.2999  -7.2000  -7.0014
    -6.7577  -6.5232  -6.3252  -6.2914  -6.1058  -6.0634  -5.9186  -5.8785
    -5.5809  -5.5241  -5.3899  -5.1516  -4.6039  -4.4492  -4.2196  -3.8988
    -1.2107   0.5233   0.5866   0.8034   0.8559   1.1046   1.1522   1.3782
     1.4516   1.4864   1.5884   1.7053   1.7778   1.8628   1.9869   2.1105
     2.1491   2.1825   2.2671   2.3124   2.4089   2.4676

          k = 0.1667-0.0962 0.0000 ( 59226 PWs)   bands (ev):

   -68.5224 -68.5132 -40.0974 -40.0507 -40.0439 -40.0004 -39.9043 -39.8941
   -21.4564 -20.6900 -20.4871 -20.4587 -20.1502 -20.1045 -19.9293 -18.8970
   -18.8472 -18.5315 -18.5043 -18.4773 -18.3959 -18.3931 -18.2067 -18.1878
   -12.6485 -12.6412 -12.5442 -11.7262 -11.7041 -11.5619 -11.5596 -11.0643
   -11.0541 -10.0716 -10.0573  -9.8117  -9.5163  -9.5077  -9.3669  -9.3571
    -9.1780  -9.1721  -9.0764  -8.4632  -8.4515  -8.0552  -8.0389  -8.0338
    -7.9762  -7.9031  -7.7500  -7.6977  -7.3099  -7.2110  -7.0971  -7.0266
    -7.0110  -6.9669  -6.6700  -6.6561  -6.3903  -5.5388  -5.4361  -5.2757
    -5.1987  -4.9777  -4.9374  -4.8701  -4.7416  -4.7309  -4.4816  -4.4417
    -1.2336   0.5146   0.6280   0.8042   1.0190   1.1469   1.1808   1.3270
     1.4002   1.4675   1.6585   1.6755   1.7622   1.8338   1.9429   2.0296
     2.0888   2.1787   2.2353   2.2607   2.3924   2.4567

          k =-0.5000-0.8660 0.0000 ( 59292 PWs)   bands (ev):

   -68.5224 -68.5132 -40.0974 -40.0507 -40.0440 -40.0004 -39.9042 -39.8941
   -21.2115 -21.1735 -20.6150 -20.5858 -19.5953 -19.5751 -19.5345 -19.5296
   -19.1340 -19.1114 -18.4748 -18.4672 -18.4366 -18.4337 -17.9327 -17.9077
   -12.2256 -12.2169 -12.1904 -12.1871 -12.0257 -11.9981 -11.4701 -11.4524
   -10.3848 -10.3597 -10.2768 -10.2693 -10.2541 -10.2538  -8.7730  -8.7030
    -8.6926  -8.6716  -8.6680  -8.6668  -8.0146  -8.0060  -7.9868  -7.9846
    -7.9543  -7.9448  -7.9277  -7.8722  -7.6295  -7.6103  -6.7602  -6.7341
    -6.5470  -6.4964  -6.4232  -6.4088  -6.3249  -6.3118  -5.8543  -5.8150
    -5.6875  -5.6667  -4.8857  -4.8776  -4.8104  -4.8001  -4.0347  -3.9796
    -1.1856   0.2868   0.5845   0.8345   0.9882   1.1629   1.2770   1.3507
     1.3942   1.4545   1.6087   1.7469   1.8158   1.9300   1.9604   2.0437
     2.1135   2.1872   2.2260   2.2821   2.4733   2.5093

          k =-0.1667 0.2887 0.0000 ( 59267 PWs)   bands (ev):

   -68.5224 -68.5132 -40.0974 -40.0507 -40.0440 -40.0004 -39.9043 -39.8941
   -21.3916 -20.8140 -20.7807 -20.2471 -20.2320 -19.7327 -19.7063 -19.2365
   -18.8605 -18.8187 -18.5878 -18.5838 -18.3366 -18.2164 -18.1934 -17.9800
   -12.6256 -12.3464 -12.3407 -11.9592 -11.9472 -11.7955 -11.3369 -11.3161
   -10.5286 -10.5045 -10.2581 -10.2418  -9.7301  -9.7208  -8.9921  -8.9653
    -8.9603  -8.9091  -8.8858  -8.7293  -8.3289  -8.2172  -8.1363  -7.9689
    -7.9600  -7.5781  -7.5689  -7.4317  -7.3945  -7.3454  -7.3360  -7.0907
    -7.0884  -6.7172  -6.6534  -6.2896  -6.2851  -6.0115  -5.5512  -5.4744
    -5.3991  -5.3323  -5.0425  -5.0331  -4.6547  -4.4839  -4.4505  -4.1089
    -1.2223   0.5180   0.6065   0.8939   0.9797   1.1653   1.1992   1.3008
     1.3809   1.4479   1.4800   1.6903   1.7229   1.7878   1.9734   2.0926
     2.1653   2.1907   2.2266   2.3028   2.3954   2.4287

          k = 0.3333 0.0000 0.0000 ( 59267 PWs)   bands (ev):

   -68.5224 -68.5132 -40.0974 -40.0507 -40.0439 -40.0004 -39.9042 -39.8941
   -21.3897 -20.8576 -20.7363 -20.2641 -20.2066 -19.7842 -19.6649 -19.2475
   -18.8742 -18.7798 -18.6175 -18.5607 -18.3280 -18.2609 -18.1702 -17.9761
   -12.6203 -12.3667 -12.3235 -11.9797 -11.9374 -11.7872 -11.3663 -11.2869
   -10.5289 -10.4999 -10.2816 -10.2221  -9.7376  -9.7065  -8.9898  -8.9755
    -8.9535  -8.9402  -8.8507  -8.7344  -8.3373  -8.2865  -8.0642  -7.9665
    -7.9539  -7.5856  -7.5583  -7.4588  -7.3637  -7.3490  -7.3190  -7.1152
    -7.0699  -6.8005  -6.5921  -6.2938  -6.2779  -6.0336  -5.5505  -5.4801
    -5.3520  -5.3337  -5.0904  -4.9934  -4.6446  -4.5379  -4.4249  -4.1040
    -1.2063   0.3671   0.6382   0.7833   1.0492   1.1679   1.2547   1.3531
     1.3652   1.4497   1.5045   1.7692   1.8078   1.9000   1.9539   2.1008
     2.1280   2.1919   2.2755   2.3294   2.3822   2.4042

          k =-0.1667-0.4811 0.0000 ( 59291 PWs)   bands (ev):

   -68.5224 -68.5132 -40.0974 -40.0507 -40.0440 -40.0004 -39.9043 -39.8941
   -21.2701 -21.0383 -20.8637 -20.3035 -19.9418 -19.6010 -19.4567 -19.3115
   -19.1478 -18.9080 -18.8073 -18.6606 -18.3002 -18.1979 -18.0534 -17.8552
   -12.4930 -12.2574 -12.1809 -12.0344 -11.8239 -11.7906 -11.6841 -11.0765
   -11.0320 -10.7629 -10.6480 -10.0022  -9.8272  -9.4695  -9.2475  -8.8410
    -8.7629  -8.6894  -8.5189  -8.4881  -8.2952  -8.2664  -8.2016  -8.1785
    -7.8352  -7.7570  -7.6323  -7.5997  -7.5053  -7.2999  -7.2000  -7.0014
    -6.7577  -6.5232  -6.3252  -6.2914  -6.1058  -6.0634  -5.9186  -5.8785
    -5.5809  -5.5241  -5.3899  -5.1516  -4.6039  -4.4492  -4.2196  -3.8988
    -1.2107   0.5233   0.5866   0.8033   0.8559   1.1046   1.1522   1.3783
     1.4515   1.4864   1.5884   1.7052   1.7778   1.8628   1.9867   2.1104
     2.1493   2.1826   2.2670   2.3123   2.4098   2.4674

          k = 0.5000-0.0962 0.0000 ( 59291 PWs)   bands (ev):

   -68.5224 -68.5132 -40.0974 -40.0507 -40.0440 -40.0004 -39.9043 -39.8941
   -21.2587 -21.0702 -20.8431 -20.2960 -19.9387 -19.6176 -19.4742 -19.2915
   -19.1547 -18.9167 -18.7611 -18.6809 -18.2773 -18.2406 -18.0428 -17.8530
   -12.4841 -12.2620 -12.1738 -12.0539 -11.8481 -11.7565 -11.6919 -11.0783
   -11.0219 -10.7566 -10.6584  -9.9926  -9.8290  -9.4728  -9.2448  -8.8182
    -8.7671  -8.6820  -8.5583  -8.5361  -8.2873  -8.2325  -8.2202  -8.1532
    -7.8176  -7.7588  -7.6303  -7.6038  -7.4892  -7.3064  -7.2028  -6.9939
    -6.7591  -6.5607  -6.3541  -6.2882  -6.0721  -6.0600  -5.9159  -5.8891
    -5.5859  -5.5368  -5.3165  -5.1825  -4.5728  -4.5046  -4.2087  -3.8956
    -1.1856   0.2895   0.5839   0.8005   0.9012   1.1222   1.2186   1.3501
     1.4338   1.6249   1.6631   1.7260   1.8445   1.9887   2.0195   2.0612
     2.1335   2.1574   2.2854   2.2927   2.4306   2.4825

          k =-0.3333-0.3849 0.0000 ( 59291 PWs)   bands (ev):

   -68.5224 -68.5132 -40.0974 -40.0507 -40.0440 -40.0004 -39.9043 -39.8941
   -21.2629 -21.0591 -20.8509 -20.2939 -19.9511 -19.6037 -19.4536 -19.3099
   -19.1662 -18.9069 -18.7669 -18.6800 -18.2831 -18.2316 -18.0434 -17.8539
   -12.4898 -12.2500 -12.1843 -12.0459 -11.8267 -11.7856 -11.6886 -11.0782
   -11.0211 -10.7543 -10.6601  -9.9948  -9.8292  -9.4712  -9.2503  -8.8265
    -8.7599  -8.6876  -8.5336  -8.5252  -8.2930  -8.2378  -8.2059  -8.1845
    -7.8180  -7.7539  -7.6457  -7.5893  -7.4842  -7.3065  -7.2061  -7.0215
    -6.7508  -6.5295  -6.3172  -6.2972  -6.1069  -6.0560  -5.9171  -5.9113
    -5.5848  -5.5191  -5.3225  -5.1843  -4.5775  -4.4966  -4.2084  -3.8967
    -1.1943   0.3556   0.5675   0.8131   0.9179   1.1024   1.1928   1.3621
     1.4689   1.5147   1.6353   1.7721   1.8773   1.9444   1.9919   2.0258
     2.1385   2.1701   2.2413   2.3065   2.4189   2.4595

          k = 0.5000 0.0962 0.0000 ( 59291 PWs)   bands (ev):

   -68.5224 -68.5132 -40.0974 -40.0507 -40.0440 -40.0004 -39.9043 -39.8941
   -21.2587 -21.0702 -20.8431 -20.2960 -19.9387 -19.6176 -19.4742 -19.2915
   -19.1547 -18.9167 -18.7611 -18.6809 -18.2773 -18.2406 -18.0428 -17.8530
   -12.4841 -12.2620 -12.1738 -12.0539 -11.8481 -11.7564 -11.6919 -11.0783
   -11.0218 -10.7567 -10.6584  -9.9926  -9.8290  -9.4728  -9.2448  -8.8182
    -8.7671  -8.6820  -8.5583  -8.5361  -8.2873  -8.2325  -8.2202  -8.1532
    -7.8176  -7.7588  -7.6303  -7.6038  -7.4892  -7.3065  -7.2028  -6.9939
    -6.7590  -6.5607  -6.3541  -6.2881  -6.0721  -6.0599  -5.9160  -5.8891
    -5.5859  -5.5368  -5.3165  -5.1825  -4.5728  -4.5046  -4.2087  -3.8956
    -1.1856   0.2895   0.5839   0.8005   0.9012   1.1222   1.2186   1.3501
     1.4338   1.6248   1.6631   1.7260   1.8445   1.9888   2.0195   2.0611
     2.1335   2.1574   2.2853   2.2935   2.4304   2.4824

          k =-0.3333 0.3849 0.0000 ( 59291 PWs)   bands (ev):

   -68.5224 -68.5132 -40.0974 -40.0507 -40.0440 -40.0004 -39.9043 -39.8941
   -21.2629 -21.0591 -20.8509 -20.2939 -19.9511 -19.6037 -19.4536 -19.3099
   -19.1662 -18.9069 -18.7669 -18.6800 -18.2831 -18.2316 -18.0434 -17.8539
   -12.4898 -12.2500 -12.1843 -12.0459 -11.8267 -11.7856 -11.6886 -11.0782
   -11.0211 -10.7543 -10.6601  -9.9949  -9.8292  -9.4712  -9.2503  -8.8265
    -8.7600  -8.6875  -8.5336  -8.5252  -8.2930  -8.2378  -8.2058  -8.1846
    -7.8180  -7.7538  -7.6457  -7.5892  -7.4842  -7.3064  -7.2062  -7.0215
    -6.7508  -6.5294  -6.3172  -6.2972  -6.1068  -6.0561  -5.9171  -5.9113
    -5.5847  -5.5191  -5.3225  -5.1843  -4.5775  -4.4966  -4.2083  -3.8967
    -1.1943   0.3556   0.5675   0.8131   0.9179   1.1024   1.1928   1.3621
     1.4689   1.5147   1.6353   1.7721   1.8773   1.9444   1.9918   2.0258
     2.1385   2.1702   2.2412   2.3064   2.4181   2.4617

          k =-0.1667-0.0962 0.0000 ( 59226 PWs)   bands (ev):

   -68.5224 -68.5132 -40.0974 -40.0507 -40.0439 -40.0004 -39.9043 -39.8941
   -21.4564 -20.6900 -20.4871 -20.4587 -20.1503 -20.1045 -19.9293 -18.8970
   -18.8472 -18.5315 -18.5043 -18.4772 -18.3959 -18.3931 -18.2067 -18.1878
   -12.6485 -12.6412 -12.5442 -11.7262 -11.7041 -11.5619 -11.5596 -11.0643
   -11.0541 -10.0716 -10.0573  -9.8117  -9.5162  -9.5077  -9.3669  -9.3571
    -9.1780  -9.1722  -9.0764  -8.4633  -8.4515  -8.0552  -8.0389  -8.0338
    -7.9762  -7.9031  -7.7500  -7.6977  -7.3099  -7.2110  -7.0972  -7.0266
    -7.0110  -6.9669  -6.6699  -6.6560  -6.3904  -5.5388  -5.4361  -5.2756
    -5.1988  -4.9777  -4.9373  -4.8701  -4.7416  -4.7308  -4.4816  -4.4417
    -1.2336   0.5146   0.6280   0.8042   1.0190   1.1470   1.1807   1.3271
     1.4002   1.4674   1.6586   1.6755   1.7622   1.8337   1.9429   2.0296
     2.0888   2.1788   2.2355   2.2607   2.3922   2.4579

          k =-0.0000-0.1925 0.0000 ( 59226 PWs)   bands (ev):

   -68.5224 -68.5132 -40.0974 -40.0507 -40.0439 -40.0003 -39.9042 -39.8941
   -21.4569 -20.6697 -20.5023 -20.4812 -20.1193 -20.1053 -19.9418 -18.8746
   -18.8536 -18.5991 -18.4914 -18.4753 -18.3709 -18.3632 -18.2112 -18.2011
   -12.6652 -12.6240 -12.5449 -11.7229 -11.7114 -11.5759 -11.5353 -11.0657
   -11.0602 -10.0648 -10.0645  -9.8110  -9.5266  -9.4927  -9.3664  -9.3653
    -9.1750  -9.1720  -9.0777  -8.4581  -8.4551  -8.0392  -8.0262  -8.0104
    -7.9793  -7.9107  -7.7932  -7.7346  -7.2421  -7.2182  -7.0924  -7.0237
    -7.0188  -6.9893  -6.6651  -6.6591  -6.3919  -5.4971  -5.4535  -5.2770
    -5.1972  -5.0756  -4.8971  -4.8848  -4.7044  -4.6955  -4.4814  -4.4656
    -1.2411   0.5351   0.7205   0.8749   0.9633   1.0828   1.2040   1.2883
     1.3318   1.5150   1.5788   1.6267   1.7955   1.8001   1.8627   2.0959
     2.1007   2.2162   2.2201   2.2544   2.3378   2.4584

          k = 0.5000-0.8660 0.0000 ( 59292 PWs)   bands (ev):

   -68.5224 -68.5132 -40.0974 -40.0507 -40.0440 -40.0004 -39.9042 -39.8941
   -21.2115 -21.1735 -20.6150 -20.5858 -19.5953 -19.5751 -19.5345 -19.5296
   -19.1339 -19.1115 -18.4747 -18.4673 -18.4365 -18.4339 -17.9327 -17.9077
   -12.2256 -12.2168 -12.1906 -12.1871 -12.0257 -11.9980 -11.4700 -11.4524
   -10.3848 -10.3598 -10.2768 -10.2693 -10.2541 -10.2538  -8.7730  -8.7029
    -8.6926  -8.6715  -8.6680  -8.6668  -8.0146  -8.0059  -7.9867  -7.9847
    -7.9543  -7.9449  -7.9277  -7.8722  -7.6295  -7.6104  -6.7602  -6.7340
    -6.5470  -6.4964  -6.4232  -6.4088  -6.3247  -6.3118  -5.8543  -5.8150
    -5.6876  -5.6668  -4.8857  -4.8776  -4.8105  -4.8000  -4.0347  -3.9796
    -1.1856   0.2868   0.5845   0.8345   0.9881   1.1629   1.2770   1.3508
     1.3943   1.4544   1.6087   1.7469   1.8158   1.9300   1.9605   2.0437
     2.1134   2.1871   2.2264   2.2821   2.4751   2.5091

          k =-1.0000 0.0000 0.0000 ( 59292 PWs)   bands (ev):

   -68.5224 -68.5132 -40.0974 -40.0507 -40.0440 -40.0004 -39.9043 -39.8941
   -21.2479 -21.1248 -20.6203 -20.6015 -19.5862 -19.5778 -19.5335 -19.5118
   -19.1683 -19.0799 -18.5917 -18.4292 -18.4223 -18.3760 -17.9289 -17.9183
   -12.3033 -12.2061 -12.1612 -12.1351 -12.0181 -12.0068 -11.5074 -11.4217
   -10.4000 -10.3971 -10.2627 -10.2568 -10.2472 -10.2444  -8.8236  -8.7558
    -8.6879  -8.6505  -8.6210  -8.5900  -8.0366  -8.0187  -7.9975  -7.9930
    -7.9507  -7.9272  -7.9207  -7.9004  -7.6747  -7.5732  -6.7447  -6.7388
    -6.5250  -6.4987  -6.4179  -6.3855  -6.3614  -6.2845  -5.8955  -5.7804
    -5.7232  -5.6312  -5.0627  -4.8205  -4.7775  -4.7301  -4.0186  -4.0028
    -1.2185   0.6000   0.6751   0.8123   0.8388   1.0838   1.3103   1.3478
     1.3744   1.4415   1.4921   1.5819   1.7498   1.7602   1.9259   2.0407
     2.1218   2.2536   2.2997   2.3136   2.4872   2.5673

     the Fermi energy is    -0.9616 ev

!    total energy              =   -1133.81359488 Ry

     total all-electron energy =     -6753.489298 Ry
     estimated scf accuracy    <       0.00000007 Ry
     smearing contrib. (-TS)   =      -0.00000000 Ry
     internal energy E=F+TS    =   -1133.81359488 Ry

     The total energy is F=E-TS. E is the sum of the following terms:
     one-electron contribution =   -4086.25308661 Ry
     hartree contribution      =    2070.85033987 Ry
     xc contribution           =    -186.08798126 Ry
     ewald contribution        =    1427.04688534 Ry
     DFT-D3 Dispersion         =      -0.12779564 Ry
     one-center paw contrib.   =    -359.24195658 Ry

     total magnetization       =    10.00 Bohr mag/cell
     absolute magnetization    =    10.01 Bohr mag/cell

     convergence has been achieved in  16 iterations

     Writing output data file ./mytmp/Crdimer0.65.save/
 
     init_run     :     81.55s CPU     84.65s WALL (       1 calls)
     electrons    :   2759.69s CPU   2816.41s WALL (       1 calls)

     Called by init_run:
     wfcinit      :     66.09s CPU     67.97s WALL (       1 calls)
     potinit      :      4.02s CPU      4.15s WALL (       1 calls)
     hinit0       :      3.44s CPU      3.61s WALL (       1 calls)

     Called by electrons:
     c_bands      :   2014.63s CPU   2035.97s WALL (      16 calls)
     sum_band     :    610.76s CPU    631.17s WALL (      16 calls)
     v_of_rho     :     29.50s CPU     30.33s WALL (      17 calls)
     newd         :     88.85s CPU    103.47s WALL (      17 calls)
     PAW_pot      :     10.93s CPU     11.21s WALL (      17 calls)
     mix_rho      :      8.18s CPU      8.19s WALL (      16 calls)

     Called by c_bands:
     init_us_2    :     28.76s CPU     28.86s WALL (     990 calls)
     cegterg      :   1959.35s CPU   1980.42s WALL (     480 calls)

     Called by *egterg:
     cdiaghg      :     17.50s CPU     25.45s WALL (    3050 calls)
     h_psi        :   1386.33s CPU   1397.50s WALL (    3080 calls)
     s_psi        :     86.82s CPU     86.91s WALL (    3080 calls)
     g_psi        :      6.18s CPU      6.19s WALL (    2570 calls)

     Called by h_psi:
     h_psi:calbec :     80.97s CPU     81.22s WALL (    3080 calls)
     vloc_psi     :   1192.58s CPU   1202.79s WALL (    3080 calls)
     add_vuspsi   :     95.35s CPU     95.55s WALL (    3080 calls)

     General routines
     calbec       :    100.21s CPU    100.55s WALL (    3560 calls)
     fft          :     25.54s CPU     26.91s WALL (     419 calls)
     ffts         :      0.76s CPU      0.78s WALL (      66 calls)
     fftw         :    972.93s CPU    985.46s WALL (  274204 calls)
     interpolate  :      2.70s CPU      2.80s WALL (      34 calls)
 
     Parallel routines
 
     PWSCF        :  47m22.99s CPU  48m24.47s WALL

 
   This run was terminated on:   0:13:12  28Mar2021            

=------------------------------------------------------------------------------=
   JOB DONE.
=------------------------------------------------------------------------------=
