
     Program PWSCF v.6.7MaX starts on 28Mar2021 at  1: 1:35 

     This program is part of the open-source Quantum ESPRESSO suite
     for quantum simulation of materials; please cite
         "P. Giannozzi et al., J. Phys.:Condens. Matter 21 395502 (2009);
         "P. Giannozzi et al., J. Phys.:Condens. Matter 29 465901 (2017);
         "P. Giannozzi et al., J. Chem. Phys. 152 154105 (2020);
          URL http://www.quantum-espresso.org", 
     in publications or presentations arising from this work. More details at
     http://www.quantum-espresso.org/quote

     Parallel version (MPI), running on    16 processors

     MPI processes distributed on     1 nodes
     R & G space division:  proc/nbgrp/npool/nimage =      16
     Reading input from Crdimer0.67.scf.in

     Current dimensions of program PWSCF are:
     Max number of different atomic species (ntypx) = 10
     Max number of k-points (npk) =  40000
     Max angular momentum in pseudopotentials (lmaxx) =  3
     file N.pbe-n-kjpaw_psl.1.0.0.UPF: wavefunction(s)  2S renormalized
     file Cr.pbe-spn-kjpaw_psl.1.0.0.UPF: wavefunction(s)  3S 3P 3D renormalized
     file Cr.pbe-spn-kjpaw_psl.1.0.0.UPF: wavefunction(s)  3S 3P 3D renormalized

     --------------------------------------------
     Parameters for DFT-D3 Dispersion Correction:
     --------------------------------------------
       Reference C6 values for interpolation: 

         atom   Coordination number   C6
         B          0.000           214.36
         B          0.971           150.74
         B          1.944           106.23
         B          2.913            62.89
         B          4.586            56.06
         N          0.000            50.54
         N          0.994            44.25
         N          2.014            39.35
         N          2.990            31.16
         Cr1        0.000          1381.48
         Cr1        1.827           571.38
         Cr1       10.619           306.69
         Cr2        0.000          1381.48
         Cr2        1.827           571.38
         Cr2       10.619           306.69

       Values used:

         atom   Coordination number  R0_AB[au]  C6      C8
         B          3.335            3.039     62.89   2506.00
         B          3.350            3.039     62.88   2505.62
         B          3.335            3.039     62.89   2506.01
         B          3.336            3.039     62.89   2506.00
         B          3.337            3.039     62.89   2505.97
         B          3.337            3.039     62.89   2505.97
         N          3.134            2.478     31.22    688.70
         N          3.168            2.478     31.21    688.42
         N          3.134            2.478     31.22    688.70
         N          3.134            2.478     31.22    688.70
         N          3.137            2.478     31.22    688.67
         N          3.136            2.478     31.22    688.67
         N          3.136            2.478     31.22    688.68
         N          3.137            2.478     31.22    688.67
         N          3.134            2.478     31.22    688.70
         B          3.353            3.039     62.88   2505.55
         B          3.350            3.039     62.88   2505.62
         B          3.337            3.039     62.89   2505.97
         B          3.337            3.039     62.89   2505.97
         B          3.335            3.039     62.89   2506.00
         B          3.353            3.039     62.88   2505.55
         N          3.136            2.478     31.22    688.68
         B          3.336            3.039     62.89   2505.99
         B          3.358            3.039     62.88   2505.40
         B          3.335            3.039     62.89   2506.00
         N          3.136            2.478     31.22    688.67
         N          3.168            2.478     31.21    688.42
         N          3.136            2.478     31.22    688.68
         N          3.136            2.478     31.22    688.68
         N          3.134            2.478     31.22    688.70
         N          3.134            2.478     31.22    688.70
         B          3.335            3.039     62.89   2506.00
         Cr1        0.731            3.252   1315.06 121365.58
         Cr2        0.731            3.252   1315.06 121365.57

         Molecular C6 ( Ry / a.u.^6 ) =     78400.44


     Subspace diagonalization in iterative solution of the eigenvalue problem:
     one sub-group per band group will be used
     scalapack distributed-memory algorithm (size of sub-group:  4*  4 procs)

 
     Parallelization info
     --------------------
     sticks:   dense  smooth     PW     G-vecs:    dense   smooth      PW
     Min         706     296     80               108834    29636    4252
     Max         707     297     81               108839    29645    4263
     Sum       11311    4741   1285              1741401   474235   68095
 
     Using Slab Decomposition
 


     bravais-lattice index     =            4
     lattice parameter (alat)  =      18.9275  a.u.
     unit-cell volume          =   10553.3021 (a.u.)^3
     number of atoms/cell      =           34
     number of atomic types    =            4
     number of electrons       =       156.00
     number of Kohn-Sham states=           94
     kinetic-energy cutoff     =      48.0000  Ry
     charge density cutoff     =     457.0000  Ry
     scf convergence threshold =      1.0E-07
     mixing beta               =       0.5000
     number of iterations used =            8  plain     mixing
     Exchange-correlation= SLA  PW   PBX  PBC
                           (   1   4   3   4   0   0   0)

     celldm(1)=  18.927497  celldm(2)=   0.000000  celldm(3)=   1.797125
     celldm(4)=   0.000000  celldm(5)=   0.000000  celldm(6)=   0.000000

     crystal axes: (cart. coord. in units of alat)
               a(1) = (   1.000000   0.000000   0.000000 )  
               a(2) = (  -0.500000   0.866025   0.000000 )  
               a(3) = (   0.000000   0.000000   1.797125 )  

     reciprocal axes: (cart. coord. in units 2 pi/alat)
               b(1) = (  1.000000  0.577350  0.000000 )  
               b(2) = (  0.000000  1.154701  0.000000 )  
               b(3) = (  0.000000  0.000000  0.556444 )  


     PseudoPot. # 1 for B  read from file:
     /home/yueyi/q-e-gpu-qe-gpu-6.7/pseudo/B.pbe-n-kjpaw_psl.1.0.0.UPF
     MD5 check sum: d9c678ba5d3b2fd7b74e61139c9288d8
     Pseudo is Projector augmented-wave + core cor, Zval =  3.0
     Generated using "atomic" code by A. Dal Corso  v.5.1.2
     Shape of augmentation charge: PSQ
     Using radial grid of 1059 points,  4 beta functions with: 
                l(1) =   0
                l(2) =   0
                l(3) =   1
                l(4) =   1
     Q(r) pseudized with 0 coefficients 


     PseudoPot. # 2 for N  read from file:
     /home/yueyi/q-e-gpu-qe-gpu-6.7/pseudo/N.pbe-n-kjpaw_psl.1.0.0.UPF
     MD5 check sum: e0e4e94a9c4025c5b51bd7d8793849bd
     Pseudo is Projector augmented-wave + core cor, Zval =  5.0
     Generated using "atomic" code by A. Dal Corso  v.5.1.2
     Shape of augmentation charge: PSQ
     Using radial grid of 1085 points,  4 beta functions with: 
                l(1) =   0
                l(2) =   0
                l(3) =   1
                l(4) =   1
     Q(r) pseudized with 0 coefficients 


     PseudoPot. # 3 for Cr read from file:
     /home/yueyi/q-e-gpu-qe-gpu-6.7/pseudo/Cr.pbe-spn-kjpaw_psl.1.0.0.UPF
     MD5 check sum: 198f1a2427a48552563eee314eba32ba
     Pseudo is Projector augmented-wave + core cor, Zval = 14.0
     Generated using &quot;atomic&quot; code by A. Dal Corso  v.6.3
     Shape of augmentation charge: PSQ
     Using radial grid of 1183 points,  6 beta functions with: 
                l(1) =   0
                l(2) =   0
                l(3) =   1
                l(4) =   1
                l(5) =   2
                l(6) =   2
     Q(r) pseudized with 0 coefficients 


     PseudoPot. # 4 for Cr read from file:
     /home/yueyi/q-e-gpu-qe-gpu-6.7/pseudo/Cr.pbe-spn-kjpaw_psl.1.0.0.UPF
     MD5 check sum: 198f1a2427a48552563eee314eba32ba
     Pseudo is Projector augmented-wave + core cor, Zval = 14.0
     Generated using &quot;atomic&quot; code by A. Dal Corso  v.6.3
     Shape of augmentation charge: PSQ
     Using radial grid of 1183 points,  6 beta functions with: 
                l(1) =   0
                l(2) =   0
                l(3) =   1
                l(4) =   1
                l(5) =   2
                l(6) =   2
     Q(r) pseudized with 0 coefficients 


     atomic species   valence    mass     pseudopotential
        B              3.00    10.81100     B ( 1.00)
        N              5.00    14.00674     N ( 1.00)
        Cr1           14.00    51.99610     Cr( 1.00)
        Cr2           14.00    51.99610     Cr( 1.00)

     Starting magnetic structure 
     atomic species   magnetization
        B            0.000
        N            0.000
        Cr1          1.000
        Cr2          1.000

     No symmetry found



   Cartesian axes

     site n.     atom                  positions (alat units)
         1           B   tau(   1) = (  -0.1250000   0.2165064   0.8985623  )
         2           B   tau(   2) = (   0.3750000   0.6495191   0.8985623  )
         3           B   tau(   3) = (   0.2500000   0.0000000   0.8985623  )
         4           B   tau(   4) = (   0.7500000   0.0000000   0.8985623  )
         5           B   tau(   5) = (   0.1250000   0.2165064   0.8985623  )
         6           B   tau(   6) = (  -0.3750000   0.6495191   0.8985623  )
         7           N   tau(   7) = (   0.7500005   0.2886748   0.8985623  )
         8           N   tau(   8) = (   0.3750005   0.5051812   0.8985623  )
         9           N   tau(   9) = (   0.3750005   0.0721685   0.8985623  )
        10           N   tau(  10) = (   0.6250005   0.0721685   0.8985623  )
        11           N   tau(  11) = (   0.2500005   0.2886748   0.8985623  )
        12           N   tau(  12) = (   0.6250005   0.5051812   0.8985623  )
        13           N   tau(  13) = (   0.0000005   0.2886748   0.8985623  )
        14           N   tau(  14) = (   0.2500005   0.7216875   0.8985623  )
        15           N   tau(  15) = (  -0.2499995   0.7216875   0.8985623  )
        16           B   tau(  16) = (   0.0000000   0.4330127   0.8985623  )
        17           B   tau(  17) = (   0.1250000   0.6495191   0.8985623  )
        18           B   tau(  18) = (  -0.1250000   0.6495191   0.8985623  )
        19           B   tau(  19) = (   0.3750000   0.2165064   0.8985623  )
        20           B   tau(  20) = (   0.6250000   0.2165064   0.8985623  )
        21           B   tau(  21) = (   0.5000000   0.4330127   0.8985623  )
        22           N   tau(  22) = (   0.5000005   0.2886748   0.8985623  )
        23           B   tau(  23) = (  -0.2500000   0.4330127   0.8985623  )
        24           B   tau(  24) = (   0.2500000   0.4330127   0.8985623  )
        25           B   tau(  25) = (   0.5000000   0.0000000   0.8985623  )
        26           N   tau(  26) = (  -0.1249995   0.5051812   0.8985623  )
        27           N   tau(  27) = (   0.1250005   0.5051812   0.8985623  )
        28           N   tau(  28) = (   0.0000005   0.7216875   0.8985623  )
        29           N   tau(  29) = (   0.5000005   0.7216875   0.8985623  )
        30           N   tau(  30) = (   0.1250005   0.0721685   0.8985623  )
        31           N   tau(  31) = (   0.8750005   0.0721685   0.8985623  )
        32           B   tau(  32) = (   0.0000000   0.0000000   0.8985623  )
        33           Cr1 tau(  33) = (   0.1083335   0.5051812   1.2040735  )
        34           Cr2 tau(  34) = (   0.3916668   0.5051812   1.2040735  )

     number of k points=    15  Gaussian smearing, width (Ry)=  0.0000
                       cart. coord. in units 2pi/alat
        k(    1) = (   0.1666667   0.2886751   0.0000000), wk =   0.0740741
        k(    2) = (   0.1666667  -0.4811252   0.0000000), wk =   0.0740741
        k(    3) = (   0.1666667  -0.0962250   0.0000000), wk =   0.0740741
        k(    4) = (  -0.5000000  -0.8660254   0.0000000), wk =   0.0370370
        k(    5) = (  -0.1666667   0.2886751   0.0000000), wk =   0.0740741
        k(    6) = (   0.3333333   0.0000000   0.0000000), wk =   0.0740741
        k(    7) = (  -0.1666667  -0.4811252   0.0000000), wk =   0.0740741
        k(    8) = (   0.5000000  -0.0962250   0.0000000), wk =   0.0740741
        k(    9) = (  -0.3333333  -0.3849002   0.0000000), wk =   0.0740741
        k(   10) = (   0.5000000   0.0962250   0.0000000), wk =   0.0740741
        k(   11) = (  -0.3333333   0.3849002   0.0000000), wk =   0.0740741
        k(   12) = (  -0.1666667  -0.0962250   0.0000000), wk =   0.0740741
        k(   13) = (  -0.0000000  -0.1924501   0.0000000), wk =   0.0740741
        k(   14) = (   0.5000000  -0.8660254   0.0000000), wk =   0.0370370
        k(   15) = (  -1.0000000   0.0000000   0.0000000), wk =   0.0370370

     Dense  grid:  1741401 G-vectors     FFT dimensions: ( 135, 135, 240)

     Smooth grid:   474235 G-vectors     FFT dimensions: (  90,  90, 160)

     Estimated max dynamical RAM per process >     642.21 MB

     Estimated total dynamical RAM >      10.03 GB
     Generating pointlists ...
     new r_m :   0.0595 (alat units)  1.1269 (a.u.) for type    1
     new r_m :   0.0595 (alat units)  1.1269 (a.u.) for type    2
     new r_m :   0.1169 (alat units)  2.2122 (a.u.) for type    3
     new r_m :   0.1169 (alat units)  2.2122 (a.u.) for type    4

     Initial potential from superposition of free atoms

     starting charge  155.99382, renormalised to  156.00000

     negative rho (up, down):  6.711E-03 4.655E-04
     Starting wfcs are  148 randomized atomic wfcs
     Checking if some PAW data can be deallocated... 

     total cpu time spent up to now is       84.6 secs

     Self-consistent Calculation

     iteration #  1     ecut=    48.00 Ry     beta= 0.50
     Davidson diagonalization with overlap
     ethr =  1.00E-02,  avg # of iterations =  2.7

     negative rho (up, down):  4.878E-03 2.889E-03

     total cpu time spent up to now is      281.6 secs

     total energy              =   -1130.74251882 Ry
     estimated scf accuracy    <      11.35060698 Ry

     total magnetization       =    12.00 Bohr mag/cell
     absolute magnetization    =    12.16 Bohr mag/cell

     iteration #  2     ecut=    48.00 Ry     beta= 0.50
     Davidson diagonalization with overlap
     ethr =  7.28E-03,  avg # of iterations =  2.7

     negative rho (up, down):  1.078E-02 1.031E-02

     total cpu time spent up to now is      465.4 secs

     total energy              =   -1132.45699133 Ry
     estimated scf accuracy    <       4.88667817 Ry

     total magnetization       =     9.04 Bohr mag/cell
     absolute magnetization    =     9.48 Bohr mag/cell

     iteration #  3     ecut=    48.00 Ry     beta= 0.50
     Davidson diagonalization with overlap
     ethr =  3.13E-03,  avg # of iterations =  7.3

     negative rho (up, down):  7.405E-03 7.615E-03

     total cpu time spent up to now is      666.6 secs

     total energy              =   -1133.49853732 Ry
     estimated scf accuracy    <       1.41620143 Ry

     total magnetization       =    10.00 Bohr mag/cell
     absolute magnetization    =    10.20 Bohr mag/cell

     iteration #  4     ecut=    48.00 Ry     beta= 0.50
     Davidson diagonalization with overlap
     ethr =  9.08E-04,  avg # of iterations =  5.6

     negative rho (up, down):  6.218E-03 5.714E-03

     total cpu time spent up to now is      837.8 secs

     total energy              =   -1133.80560081 Ry
     estimated scf accuracy    <       0.25958505 Ry

     total magnetization       =    10.00 Bohr mag/cell
     absolute magnetization    =    10.07 Bohr mag/cell

     iteration #  5     ecut=    48.00 Ry     beta= 0.50
     Davidson diagonalization with overlap
     ethr =  1.66E-04,  avg # of iterations = 10.1

     negative rho (up, down):  3.959E-03 4.000E-03

     total cpu time spent up to now is     1031.2 secs

     total energy              =   -1133.78306753 Ry
     estimated scf accuracy    <       0.27227899 Ry

     total magnetization       =    10.00 Bohr mag/cell
     absolute magnetization    =    10.02 Bohr mag/cell

     iteration #  6     ecut=    48.00 Ry     beta= 0.50
     Davidson diagonalization with overlap
     ethr =  1.66E-04,  avg # of iterations =  5.9

     negative rho (up, down):  3.481E-03 3.954E-03

     total cpu time spent up to now is     1210.9 secs

     total energy              =   -1133.81157128 Ry
     estimated scf accuracy    <       0.12534533 Ry

     total magnetization       =    10.00 Bohr mag/cell
     absolute magnetization    =    10.02 Bohr mag/cell

     iteration #  7     ecut=    48.00 Ry     beta= 0.50
     Davidson diagonalization with overlap
     ethr =  8.03E-05,  avg # of iterations =  5.7

     negative rho (up, down):  3.239E-03 3.774E-03

     total cpu time spent up to now is     1387.2 secs

     total energy              =   -1133.82552642 Ry
     estimated scf accuracy    <       0.02260091 Ry

     total magnetization       =    10.00 Bohr mag/cell
     absolute magnetization    =    10.03 Bohr mag/cell

     iteration #  8     ecut=    48.00 Ry     beta= 0.50
     Davidson diagonalization with overlap
     ethr =  1.45E-05,  avg # of iterations =  5.0

     negative rho (up, down):  3.144E-03 3.770E-03

     total cpu time spent up to now is     1550.5 secs

     total energy              =   -1133.82760390 Ry
     estimated scf accuracy    <       0.00144926 Ry

     total magnetization       =    10.00 Bohr mag/cell
     absolute magnetization    =    10.02 Bohr mag/cell

     iteration #  9     ecut=    48.00 Ry     beta= 0.50
     Davidson diagonalization with overlap
     c_bands:  2 eigenvalues not converged
     c_bands:  2 eigenvalues not converged
     ethr =  9.29E-07,  avg # of iterations =  9.4

     negative rho (up, down):  3.123E-03 3.789E-03

     total cpu time spent up to now is     1765.3 secs

     total energy              =   -1133.82795891 Ry
     estimated scf accuracy    <       0.00023007 Ry

     total magnetization       =    10.00 Bohr mag/cell
     absolute magnetization    =    10.01 Bohr mag/cell

     iteration # 10     ecut=    48.00 Ry     beta= 0.50
     Davidson diagonalization with overlap
     ethr =  1.47E-07,  avg # of iterations =  3.3

     negative rho (up, down):  3.111E-03 3.791E-03

     total cpu time spent up to now is     1931.9 secs

     total energy              =   -1133.82800684 Ry
     estimated scf accuracy    <       0.00011802 Ry

     total magnetization       =    10.00 Bohr mag/cell
     absolute magnetization    =    10.01 Bohr mag/cell

     iteration # 11     ecut=    48.00 Ry     beta= 0.50
     Davidson diagonalization with overlap
     ethr =  7.57E-08,  avg # of iterations =  3.0

     negative rho (up, down):  3.106E-03 3.797E-03

     total cpu time spent up to now is     2088.3 secs

     total energy              =   -1133.82803059 Ry
     estimated scf accuracy    <       0.00001908 Ry

     total magnetization       =    10.00 Bohr mag/cell
     absolute magnetization    =    10.01 Bohr mag/cell

     iteration # 12     ecut=    48.00 Ry     beta= 0.50
     Davidson diagonalization with overlap
     ethr =  1.22E-08,  avg # of iterations =  4.3

     negative rho (up, down):  3.103E-03 3.800E-03

     total cpu time spent up to now is     2251.9 secs

     total energy              =   -1133.82803662 Ry
     estimated scf accuracy    <       0.00000219 Ry

     total magnetization       =    10.00 Bohr mag/cell
     absolute magnetization    =    10.01 Bohr mag/cell

     iteration # 13     ecut=    48.00 Ry     beta= 0.50
     Davidson diagonalization with overlap
     ethr =  1.40E-09,  avg # of iterations =  4.6

     negative rho (up, down):  3.102E-03 3.802E-03

     total cpu time spent up to now is     2421.6 secs

     total energy              =   -1133.82803800 Ry
     estimated scf accuracy    <       0.00000060 Ry

     total magnetization       =    10.00 Bohr mag/cell
     absolute magnetization    =    10.01 Bohr mag/cell

     iteration # 14     ecut=    48.00 Ry     beta= 0.50
     Davidson diagonalization with overlap
     ethr =  3.85E-10,  avg # of iterations =  3.6

     negative rho (up, down):  3.101E-03 3.803E-03

     total cpu time spent up to now is     2583.2 secs

     total energy              =   -1133.82803839 Ry
     estimated scf accuracy    <       0.00000014 Ry

     total magnetization       =    10.00 Bohr mag/cell
     absolute magnetization    =    10.01 Bohr mag/cell

     iteration # 15     ecut=    48.00 Ry     beta= 0.50
     Davidson diagonalization with overlap
     ethr =  8.66E-11,  avg # of iterations =  4.3

     negative rho (up, down):  3.101E-03 3.804E-03
 
     Magnetic moment per site:
     atom:    1    charge:    0.8804    magn:    0.0002    constr:    0.0000
     atom:    2    charge:    0.8801    magn:    0.0005    constr:    0.0000
     atom:    3    charge:    0.8803    magn:    0.0001    constr:    0.0000
     atom:    4    charge:    0.8802    magn:    0.0001    constr:    0.0000
     atom:    5    charge:    0.8801    magn:    0.0002    constr:    0.0000
     atom:    6    charge:    0.8807    magn:    0.0001    constr:    0.0000
     atom:    7    charge:    2.8609    magn:    0.0004    constr:    0.0000
     atom:    8    charge:    2.8612    magn:    0.0072    constr:    0.0000
     atom:    9    charge:    2.8609    magn:    0.0001    constr:    0.0000
     atom:   10    charge:    2.8609    magn:    0.0002    constr:    0.0000
     atom:   11    charge:    2.8605    magn:    0.0023    constr:    0.0000
     atom:   12    charge:    2.8609    magn:    0.0015    constr:    0.0000
     atom:   13    charge:    2.8597    magn:    0.0022    constr:    0.0000
     atom:   14    charge:    2.8595    magn:    0.0026    constr:    0.0000
     atom:   15    charge:    2.8600    magn:    0.0001    constr:    0.0000
     atom:   16    charge:    0.8806    magn:    0.0002    constr:    0.0000
     atom:   17    charge:    0.8798    magn:    0.0005    constr:    0.0000
     atom:   18    charge:    0.8803    magn:    0.0001    constr:    0.0000
     atom:   19    charge:    0.8795    magn:    0.0002    constr:    0.0000
     atom:   20    charge:    0.8799    magn:    0.0002    constr:    0.0000
     atom:   21    charge:    0.8803    magn:    0.0002    constr:    0.0000
     atom:   22    charge:    2.8610    magn:    0.0022    constr:    0.0000
     atom:   23    charge:    0.8803    magn:    0.0002    constr:    0.0000
     atom:   24    charge:    0.8788    magn:    0.0007    constr:    0.0000
     atom:   25    charge:    0.8799    magn:    0.0002    constr:    0.0000
     atom:   26    charge:    2.8597    magn:    0.0015    constr:    0.0000
     atom:   27    charge:    2.8600    magn:    0.0072    constr:    0.0000
     atom:   28    charge:    2.8597    magn:    0.0019    constr:    0.0000
     atom:   29    charge:    2.8595    magn:    0.0019    constr:    0.0000
     atom:   30    charge:    2.8596    magn:    0.0001    constr:    0.0000
     atom:   31    charge:    2.8596    magn:    0.0002    constr:    0.0000
     atom:   32    charge:    0.8802    magn:    0.0002    constr:    0.0000
     atom:   33    charge:   12.5208    magn:    4.2369    constr:    0.0000
     atom:   34    charge:   12.5207    magn:    4.2370    constr:    0.0000

     total cpu time spent up to now is     2757.2 secs

     End of self-consistent calculation

 ------ SPIN UP ------------


          k = 0.1667 0.2887 0.0000 ( 59267 PWs)   bands (ev):

   -72.8826 -72.8745 -44.4326 -44.3528 -44.2909 -44.2831 -44.2500 -44.2422
   -21.2536 -20.6671 -20.6622 -20.1094 -20.1047 -19.5926 -19.5902 -19.1058
   -18.7059 -18.6975 -18.4615 -18.4589 -18.2018 -18.0911 -18.0831 -17.8558
   -12.4906 -12.2111 -12.2091 -11.8264 -11.8239 -11.6646 -11.1979 -11.1952
   -10.3978 -10.3741 -10.1235 -10.1209  -9.5955  -9.5942  -8.8439  -8.8320
    -8.8302  -8.7716  -8.7685  -8.6024  -8.2030  -8.0628  -8.0186  -7.8359
    -7.8333  -7.4452  -7.4429  -7.2881  -7.2671  -7.2142  -7.2129  -6.9645
    -6.9634  -6.5757  -6.5408  -6.1603  -6.1590  -5.8786  -5.4247  -5.3111
    -5.2769  -5.2064  -4.9170  -4.9086  -4.5149  -4.3625  -4.3430  -3.9857
    -2.8784  -2.0415  -2.0276  -1.8356  -1.6537  -1.5613  -1.4920  -1.4829
    -1.3779  -1.3573  -1.2850  -0.7382   0.6380   0.8297   1.0956   1.1972
     1.2813   1.4592   1.5172   1.5755   1.6205   1.7880

          k = 0.1667-0.4811 0.0000 ( 59291 PWs)   bands (ev):

   -72.8826 -72.8745 -44.4326 -44.3528 -44.2908 -44.2831 -44.2500 -44.2422
   -21.1240 -20.9174 -20.7296 -20.1677 -19.8109 -19.4725 -19.3238 -19.1814
   -19.0202 -18.7843 -18.6515 -18.5485 -18.1573 -18.0927 -17.9284 -17.7302
   -12.3550 -12.1198 -12.0504 -11.9117 -11.6863 -11.6649 -11.5584 -10.9478
   -10.8968 -10.6301 -10.5283  -9.8669  -9.6994  -9.3421  -9.1171  -8.6775
    -8.6294  -8.5596  -8.3946  -8.3720  -8.1676  -8.1295  -8.0691  -8.0561
    -7.6961  -7.6295  -7.5007  -7.4798  -7.3640  -7.1766  -7.0737  -6.8682
    -6.6284  -6.3947  -6.1869  -6.1641  -5.9789  -5.9354  -5.7901  -5.7506
    -5.4573  -5.4018  -5.2235  -5.0444  -4.4552  -4.3489  -4.0956  -3.7742
    -2.8756  -2.0420  -2.0272  -1.8322  -1.6521  -1.5610  -1.4944  -1.4845
    -1.3780  -1.3573  -1.2854  -0.7416   0.5578   0.8333   1.0791   1.1430
     1.2011   1.2673   1.3997   1.8358   1.9269   2.1042

          k = 0.1667-0.0962 0.0000 ( 59226 PWs)   bands (ev):

   -72.8826 -72.8745 -44.4326 -44.3528 -44.2909 -44.2830 -44.2500 -44.2421
   -21.3199 -20.5432 -20.3547 -20.3414 -19.9991 -19.9838 -19.8111 -18.7410
   -18.7252 -18.3830 -18.3757 -18.3599 -18.2720 -18.2706 -18.0850 -18.0745
   -12.5119 -12.5101 -12.4139 -11.5894 -11.5803 -11.4298 -11.4293 -10.9330
   -10.9288  -9.9371  -9.9308  -9.6821  -9.3814  -9.3786  -9.2365  -9.2332
    -9.0484  -9.0463  -8.9313  -8.3311  -8.3262  -7.9083  -7.9057  -7.8904
    -7.8512  -7.7764  -7.6199  -7.5829  -7.1491  -7.0925  -6.9659  -6.8954
    -6.8903  -6.8554  -6.5391  -6.5328  -6.2637  -5.3697  -5.3163  -5.1495
    -5.0716  -4.8238  -4.8071  -4.7522  -4.6185  -4.6122  -4.3609  -4.3322
    -2.8812  -2.0410  -2.0281  -1.8390  -1.6564  -1.5614  -1.4899  -1.4813
    -1.3778  -1.3574  -1.2845  -0.7346   0.7268   0.8057   1.0540   1.2085
     1.2922   1.3415   1.5727   1.5868   1.7241   1.9083

          k =-0.5000-0.8660 0.0000 ( 59292 PWs)   bands (ev):

   -72.8826 -72.8745 -44.4326 -44.3528 -44.2909 -44.2831 -44.2500 -44.2422
   -21.0567 -21.0533 -20.4793 -20.4663 -19.4365 -19.4310 -19.4157 -19.4137
   -18.9985 -18.9952 -18.3283 -18.3261 -18.3238 -18.3230 -17.8030 -17.7911
   -12.0738 -12.0721 -12.0700 -12.0693 -11.8868 -11.8765 -11.3352 -11.3332
   -10.2439 -10.2354 -10.1422 -10.1405 -10.1324 -10.1317  -8.6009  -8.5563
    -8.5514  -8.5509  -8.5500  -8.5460  -7.8730  -7.8716  -7.8630  -7.8621
    -7.8309  -7.8235  -7.7935  -7.7541  -7.4944  -7.4941  -6.6209  -6.6113
    -6.3754  -6.3475  -6.3039  -6.2951  -6.1953  -6.1940  -5.7208  -5.7000
    -5.5508  -5.5491  -4.7352  -4.7324  -4.7007  -4.6938  -3.9005  -3.8670
    -2.8633  -2.0406  -2.0243  -1.8333  -1.6537  -1.5604  -1.4933  -1.4863
    -1.3812  -1.3641  -1.2906  -0.8635   0.7222   1.0071   1.1119   1.2087
     1.3300   1.5439   1.5817   1.6206   1.7347   1.7472

          k =-0.1667 0.2887 0.0000 ( 59267 PWs)   bands (ev):

   -72.8826 -72.8745 -44.4326 -44.3528 -44.2909 -44.2831 -44.2500 -44.2422
   -21.2536 -20.6671 -20.6622 -20.1094 -20.1047 -19.5926 -19.5902 -19.1058
   -18.7059 -18.6976 -18.4615 -18.4590 -18.2018 -18.0911 -18.0831 -17.8558
   -12.4905 -12.2111 -12.2091 -11.8264 -11.8239 -11.6646 -11.1978 -11.1952
   -10.3978 -10.3741 -10.1235 -10.1209  -9.5955  -9.5942  -8.8439  -8.8320
    -8.8302  -8.7716  -8.7686  -8.6023  -8.2031  -8.0628  -8.0186  -7.8359
    -7.8332  -7.4452  -7.4429  -7.2881  -7.2671  -7.2142  -7.2129  -6.9646
    -6.9635  -6.5757  -6.5408  -6.1603  -6.1589  -5.8786  -5.4248  -5.3111
    -5.2769  -5.2063  -4.9170  -4.9086  -4.5150  -4.3625  -4.3430  -3.9857
    -2.8784  -2.0415  -2.0276  -1.8356  -1.6537  -1.5613  -1.4920  -1.4829
    -1.3779  -1.3573  -1.2850  -0.7382   0.6380   0.8298   1.0956   1.1973
     1.2813   1.4592   1.5171   1.5755   1.6204   1.7880

          k = 0.3333 0.0000 0.0000 ( 59267 PWs)   bands (ev):

   -72.8826 -72.8745 -44.4326 -44.3528 -44.2909 -44.2830 -44.2500 -44.2422
   -21.2531 -20.6958 -20.6333 -20.1189 -20.0928 -19.6238 -19.5617 -19.1088
   -18.7236 -18.6728 -18.4746 -18.4479 -18.1966 -18.1183 -18.0647 -17.8545
   -12.4892 -12.2197 -12.2012 -11.8375 -11.8159 -11.6621 -11.2176 -11.1755
   -10.3977 -10.3729 -10.1391 -10.1065  -9.6020  -9.5857  -8.8448  -8.8374
    -8.8199  -8.7980  -8.7445  -8.6037  -8.2056  -8.1137  -7.9669  -7.8363
    -7.8302  -7.4516  -7.4356  -7.3093  -7.2389  -7.2253  -7.2013  -6.9761
    -6.9540  -6.6311  -6.4947  -6.1635  -6.1547  -5.8872  -5.4245  -5.3267
    -5.2459  -5.2068  -4.9438  -4.8845  -4.5068  -4.3997  -4.3215  -3.9833
    -2.8703  -2.0406  -2.0250  -1.8364  -1.6560  -1.5607  -1.4909  -1.4841
    -1.3801  -1.3620  -1.2881  -0.8230   0.7430   1.0081   1.1418   1.2308
     1.3033   1.4631   1.5218   1.5654   1.5710   1.8367

          k =-0.1667-0.4811 0.0000 ( 59291 PWs)   bands (ev):

   -72.8826 -72.8745 -44.4326 -44.3528 -44.2908 -44.2831 -44.2500 -44.2422
   -21.1240 -20.9174 -20.7296 -20.1677 -19.8109 -19.4725 -19.3238 -19.1813
   -19.0202 -18.7843 -18.6515 -18.5485 -18.1573 -18.0927 -17.9284 -17.7302
   -12.3550 -12.1198 -12.0504 -11.9117 -11.6863 -11.6649 -11.5584 -10.9478
   -10.8968 -10.6301 -10.5282  -9.8669  -9.6994  -9.3421  -9.1172  -8.6775
    -8.6294  -8.5596  -8.3945  -8.3720  -8.1676  -8.1295  -8.0692  -8.0561
    -7.6961  -7.6295  -7.5006  -7.4798  -7.3640  -7.1766  -7.0737  -6.8682
    -6.6285  -6.3947  -6.1869  -6.1641  -5.9789  -5.9353  -5.7900  -5.7506
    -5.4574  -5.4018  -5.2235  -5.0444  -4.4552  -4.3489  -4.0956  -3.7742
    -2.8756  -2.0420  -2.0272  -1.8322  -1.6521  -1.5610  -1.4944  -1.4845
    -1.3780  -1.3573  -1.2854  -0.7416   0.5578   0.8332   1.0791   1.1430
     1.2011   1.2672   1.3997   1.8358   1.9269   2.1041

          k = 0.5000-0.0962 0.0000 ( 59291 PWs)   bands (ev):

   -72.8826 -72.8745 -44.4326 -44.3528 -44.2909 -44.2831 -44.2500 -44.2422
   -21.1204 -20.9272 -20.7234 -20.1655 -19.8103 -19.4761 -19.3306 -19.1747
   -19.0222 -18.7867 -18.6366 -18.5562 -18.1430 -18.1133 -17.9246 -17.7295
   -12.3527 -12.1208 -12.0481 -11.9173 -11.7007 -11.6478 -11.5608 -10.9486
   -10.8937 -10.6277 -10.5316  -9.8641  -9.6999  -9.3431  -9.1164  -8.6652
    -8.6304  -8.5571  -8.4082  -8.3990  -8.1652  -8.1076  -8.0849  -8.0419
    -7.6907  -7.6302  -7.4996  -7.4813  -7.3570  -7.1785  -7.0747  -6.8652
    -6.6290  -6.4091  -6.2031  -6.1632  -5.9609  -5.9345  -5.7891  -5.7557
    -5.4588  -5.4063  -5.1908  -5.0608  -4.4313  -4.3833  -4.0902  -3.7726
    -2.8633  -2.0406  -2.0243  -1.8333  -1.6543  -1.5603  -1.4933  -1.4863
    -1.3812  -1.3641  -1.2905  -0.8633   0.7051   1.0052   1.1328   1.2100
     1.2458   1.2960   1.5323   1.7523   1.8455   1.9312

          k =-0.3333-0.3849 0.0000 ( 59291 PWs)   bands (ev):

   -72.8826 -72.8745 -44.4326 -44.3528 -44.2909 -44.2831 -44.2500 -44.2422
   -21.1217 -20.9237 -20.7258 -20.1650 -19.8135 -19.4730 -19.3238 -19.1799
   -19.0259 -18.7839 -18.6385 -18.5557 -18.1462 -18.1092 -17.9248 -17.7298
   -12.3542 -12.1174 -12.0513 -11.9151 -11.6879 -11.6626 -11.5599 -10.9484
   -10.8936 -10.6270 -10.5322  -9.8647  -9.7000  -9.3427  -9.1179  -8.6695
    -8.6284  -8.5592  -8.3972  -8.3936  -8.1669  -8.1161  -8.0690  -8.0596
    -7.6910  -7.6284  -7.5076  -7.4738  -7.3548  -7.1786  -7.0756  -6.8767
    -6.6263  -6.3971  -6.1848  -6.1661  -5.9773  -5.9331  -5.7894  -5.7655
    -5.4586  -5.3985  -5.1923  -5.0624  -4.4344  -4.3789  -4.0899  -3.7732
    -2.8674  -2.0411  -2.0256  -1.8329  -1.6532  -1.5606  -1.4935  -1.4859
    -1.3801  -1.3618  -1.2887  -0.8262   0.6580   0.9625   1.0943   1.1882
     1.2190   1.3486   1.4237   1.8208   1.8854   1.9199

          k = 0.5000 0.0962 0.0000 ( 59291 PWs)   bands (ev):

   -72.8826 -72.8745 -44.4326 -44.3528 -44.2909 -44.2831 -44.2500 -44.2422
   -21.1204 -20.9272 -20.7234 -20.1655 -19.8103 -19.4761 -19.3306 -19.1747
   -19.0221 -18.7867 -18.6366 -18.5562 -18.1430 -18.1133 -17.9246 -17.7295
   -12.3527 -12.1209 -12.0481 -11.9173 -11.7007 -11.6477 -11.5608 -10.9485
   -10.8937 -10.6277 -10.5317  -9.8641  -9.6999  -9.3431  -9.1163  -8.6652
    -8.6304  -8.5571  -8.4082  -8.3990  -8.1652  -8.1076  -8.0848  -8.0418
    -7.6907  -7.6301  -7.4996  -7.4814  -7.3570  -7.1786  -7.0747  -6.8652
    -6.6290  -6.4091  -6.2031  -6.1631  -5.9609  -5.9345  -5.7892  -5.7557
    -5.4589  -5.4063  -5.1908  -5.0608  -4.4313  -4.3833  -4.0902  -3.7726
    -2.8633  -2.0406  -2.0243  -1.8333  -1.6543  -1.5603  -1.4933  -1.4863
    -1.3812  -1.3641  -1.2905  -0.8633   0.7051   1.0052   1.1328   1.2100
     1.2458   1.2960   1.5323   1.7524   1.8454   1.9311

          k =-0.3333 0.3849 0.0000 ( 59291 PWs)   bands (ev):

   -72.8826 -72.8745 -44.4326 -44.3528 -44.2909 -44.2831 -44.2500 -44.2422
   -21.1217 -20.9237 -20.7258 -20.1650 -19.8135 -19.4730 -19.3238 -19.1799
   -19.0259 -18.7839 -18.6385 -18.5557 -18.1462 -18.1092 -17.9248 -17.7298
   -12.3541 -12.1174 -12.0513 -11.9151 -11.6879 -11.6626 -11.5598 -10.9484
   -10.8935 -10.6270 -10.5322  -9.8647  -9.7000  -9.3427  -9.1179  -8.6695
    -8.6285  -8.5591  -8.3972  -8.3936  -8.1670  -8.1161  -8.0689  -8.0596
    -7.6909  -7.6284  -7.5076  -7.4737  -7.3548  -7.1785  -7.0757  -6.8767
    -6.6264  -6.3971  -6.1848  -6.1662  -5.9773  -5.9332  -5.7893  -5.7655
    -5.4585  -5.3985  -5.1924  -5.0624  -4.4345  -4.3789  -4.0899  -3.7732
    -2.8674  -2.0411  -2.0256  -1.8329  -1.6532  -1.5606  -1.4935  -1.4859
    -1.3801  -1.3618  -1.2887  -0.8262   0.6580   0.9625   1.0942   1.1882
     1.2190   1.3486   1.4237   1.8208   1.8854   1.9199

          k =-0.1667-0.0962 0.0000 ( 59226 PWs)   bands (ev):

   -72.8826 -72.8745 -44.4326 -44.3528 -44.2909 -44.2830 -44.2500 -44.2421
   -21.3199 -20.5432 -20.3547 -20.3414 -19.9991 -19.9838 -19.8111 -18.7410
   -18.7252 -18.3830 -18.3757 -18.3599 -18.2720 -18.2706 -18.0850 -18.0745
   -12.5120 -12.5101 -12.4139 -11.5894 -11.5803 -11.4298 -11.4293 -10.9330
   -10.9288  -9.9371  -9.9308  -9.6820  -9.3813  -9.3786  -9.2365  -9.2332
    -9.0484  -9.0463  -8.9313  -8.3311  -8.3262  -7.9083  -7.9056  -7.8904
    -7.8512  -7.7765  -7.6199  -7.5829  -7.1491  -7.0925  -6.9659  -6.8954
    -6.8903  -6.8554  -6.5391  -6.5327  -6.2638  -5.3697  -5.3163  -5.1494
    -5.0717  -4.8238  -4.8071  -4.7523  -4.6185  -4.6122  -4.3609  -4.3322
    -2.8812  -2.0410  -2.0281  -1.8390  -1.6564  -1.5614  -1.4899  -1.4813
    -1.3778  -1.3574  -1.2845  -0.7346   0.7268   0.8057   1.0540   1.2084
     1.2922   1.3415   1.5726   1.5868   1.7241   1.9082

          k =-0.0000-0.1925 0.0000 ( 59226 PWs)   bands (ev):

   -72.8825 -72.8745 -44.4325 -44.3528 -44.2909 -44.2831 -44.2500 -44.2422
   -21.3201 -20.5370 -20.3594 -20.3480 -19.9920 -19.9815 -19.8155 -18.7358
   -18.7253 -18.4154 -18.3682 -18.3579 -18.2597 -18.2584 -18.0876 -18.0783
   -12.5203 -12.5020 -12.4137 -11.5893 -11.5816 -11.4380 -11.4179 -10.9338
   -10.9302  -9.9346  -9.9335  -9.6819  -9.3864  -9.3719  -9.2363  -9.2356
    -9.0480  -9.0461  -8.9320  -8.3294  -8.3272  -7.9087  -7.9025  -7.8705
    -7.8508  -7.7788  -7.6393  -7.6018  -7.1177  -7.0941  -6.9642  -6.8959
    -6.8916  -6.8679  -6.5379  -6.5332  -6.2644  -5.3511  -5.3241  -5.1498
    -5.0712  -4.8787  -4.7846  -4.7592  -4.6022  -4.5880  -4.3601  -4.3445
    -2.8852  -2.0415  -2.0293  -1.8385  -1.6553  -1.5616  -1.4906  -1.4806
    -1.3767  -1.3550  -1.2831  -0.6850   0.6371   0.7537   1.0378   1.1784
     1.2459   1.4048   1.5539   1.6126   1.6805   1.9950

          k = 0.5000-0.8660 0.0000 ( 59292 PWs)   bands (ev):

   -72.8826 -72.8745 -44.4326 -44.3528 -44.2909 -44.2831 -44.2500 -44.2422
   -21.0567 -21.0533 -20.4793 -20.4663 -19.4365 -19.4310 -19.4157 -19.4137
   -18.9984 -18.9952 -18.3283 -18.3261 -18.3238 -18.3230 -17.8030 -17.7911
   -12.0738 -12.0720 -12.0700 -12.0693 -11.8868 -11.8765 -11.3351 -11.3332
   -10.2439 -10.2354 -10.1422 -10.1405 -10.1324 -10.1317  -8.6009  -8.5563
    -8.5514  -8.5508  -8.5500  -8.5460  -7.8730  -7.8716  -7.8631  -7.8621
    -7.8309  -7.8235  -7.7935  -7.7540  -7.4944  -7.4942  -6.6208  -6.6112
    -6.3754  -6.3475  -6.3039  -6.2951  -6.1952  -6.1940  -5.7208  -5.7000
    -5.5508  -5.5492  -4.7352  -4.7323  -4.7007  -4.6938  -3.9005  -3.8671
    -2.8633  -2.0406  -2.0243  -1.8333  -1.6537  -1.5604  -1.4933  -1.4863
    -1.3812  -1.3641  -1.2906  -0.8635   0.7222   1.0071   1.1120   1.2087
     1.3300   1.5439   1.5817   1.6206   1.7346   1.7473

          k =-1.0000 0.0000 0.0000 ( 59292 PWs)   bands (ev):

   -72.8826 -72.8745 -44.4326 -44.3528 -44.2909 -44.2831 -44.2500 -44.2421
   -21.0845 -21.0219 -20.4814 -20.4702 -19.4377 -19.4331 -19.4173 -19.4011
   -19.0225 -18.9724 -18.3966 -18.3139 -18.3112 -18.2810 -17.8027 -17.7937
   -12.1232 -12.0729 -12.0505 -12.0346 -11.8866 -11.8769 -11.3581 -11.3122
   -10.2492 -10.2483 -10.1365 -10.1363 -10.1295 -10.1292  -8.6438  -8.5905
    -8.5558  -8.5360  -8.5185  -8.4927  -7.8846  -7.8746  -7.8681  -7.8657
    -7.8197  -7.8174  -7.7964  -7.7678  -7.5233  -7.4681  -6.6172  -6.6113
    -6.3708  -6.3485  -6.3041  -6.2761  -6.2177  -6.1752  -5.7514  -5.6746
    -5.5756  -5.5247  -4.8476  -4.7054  -4.6738  -4.6404  -3.8927  -3.8787
    -2.8797  -2.0425  -2.0274  -1.8319  -1.6516  -1.5611  -1.4948  -1.4839
    -1.3770  -1.3552  -1.2840  -0.6928   0.5182   0.7470   1.0924   1.1279
     1.1416   1.5293   1.5780   1.6140   1.6341   1.9256

 ------ SPIN DOWN ----------


          k = 0.1667 0.2887 0.0000 ( 59267 PWs)   bands (ev):

   -68.6860 -68.6767 -40.3637 -40.2692 -40.1208 -40.1115 -40.0437 -40.0343
   -21.2499 -20.6627 -20.6594 -20.1055 -20.1012 -19.5883 -19.5872 -19.1020
   -18.7003 -18.6945 -18.4576 -18.4552 -18.1971 -18.0871 -18.0803 -17.8518
   -12.4883 -12.2087 -12.2068 -11.8242 -11.8219 -11.6626 -11.1951 -11.1932
   -10.3952 -10.3717 -10.1202 -10.1190  -9.5928  -9.5921  -8.8293  -8.8275
    -8.8241  -8.7691  -8.7664  -8.6001  -8.2008  -8.0386  -8.0094  -7.8334
    -7.8310  -7.4417  -7.4403  -7.2685  -7.2539  -7.2117  -7.2107  -6.9622
    -6.9611  -6.5545  -6.5330  -6.1576  -6.1566  -5.8624  -5.4218  -5.2854
    -5.2666  -5.2037  -4.9026  -4.8960  -4.4976  -4.3477  -4.3350  -3.9722
    -1.4464   0.3907   0.8039   0.9626   1.1162   1.1801   1.2842   1.3596
     1.3998   1.4669   1.5480   1.6178   1.6391   1.7330   1.8864   2.0337
     2.0551   2.0683   2.1397   2.1658   2.3063   2.3455

          k = 0.1667-0.4811 0.0000 ( 59291 PWs)   bands (ev):

   -68.6860 -68.6767 -40.3637 -40.2692 -40.1208 -40.1115 -40.0437 -40.0343
   -21.1199 -20.9143 -20.7259 -20.1638 -19.8072 -19.4688 -19.3200 -19.1774
   -19.0165 -18.7807 -18.6462 -18.5456 -18.1518 -18.0905 -17.9243 -17.7261
   -12.3526 -12.1175 -12.0482 -11.9096 -11.6844 -11.6624 -11.5562 -10.9453
   -10.8941 -10.6274 -10.5260  -9.8640  -9.6971  -9.3394  -9.1147  -8.6540
    -8.6269  -8.5567  -8.3924  -8.3606  -8.1652  -8.1128  -8.0668  -8.0539
    -7.6933  -7.6271  -7.4982  -7.4777  -7.3463  -7.1738  -7.0714  -6.8522
    -6.6253  -6.3796  -6.1697  -6.1616  -5.9640  -5.9324  -5.7874  -5.7359
    -5.4548  -5.3881  -5.1998  -5.0361  -4.4342  -4.3430  -4.0821  -3.7606
    -1.4373   0.3805   0.8020   0.9232   1.0271   1.1387   1.2263   1.2718
     1.3722   1.4119   1.5657   1.7297   1.7724   1.8909   1.9297   2.0559
     2.1102   2.1292   2.1647   2.2093   2.3145   2.3416

          k = 0.1667-0.0962 0.0000 ( 59226 PWs)   bands (ev):

   -68.6860 -68.6767 -40.3637 -40.2692 -40.1208 -40.1115 -40.0437 -40.0343
   -21.3163 -20.5390 -20.3510 -20.3385 -19.9944 -19.9807 -19.8080 -18.7358
   -18.7218 -18.3779 -18.3718 -18.3567 -18.2678 -18.2667 -18.0814 -18.0713
   -12.5096 -12.5079 -12.4117 -11.5869 -11.5786 -11.4274 -11.4269 -10.9304
   -10.9265  -9.9343  -9.9288  -9.6793  -9.3788  -9.3763  -9.2336  -9.2307
    -9.0459  -9.0441  -8.9128  -8.3279  -8.3235  -7.9055  -7.9034  -7.8679
    -7.8478  -7.7742  -7.6032  -7.5732  -7.1237  -7.0825  -6.9633  -6.8928
    -6.8883  -6.8455  -6.5363  -6.5306  -6.2613  -5.3433  -5.3056  -5.1467
    -5.0689  -4.8013  -4.7910  -4.7427  -4.6051  -4.6006  -4.3464  -4.3231
    -1.4555   0.4033   0.8043   0.9664   1.0701   1.1532   1.2115   1.3120
     1.4978   1.5278   1.6032   1.6739   1.7890   1.8211   1.8719   1.9361
     2.0208   2.0750   2.1177   2.1320   2.2568   2.3413

          k =-0.5000-0.8660 0.0000 ( 59292 PWs)   bands (ev):

   -68.6860 -68.6767 -40.3637 -40.2692 -40.1208 -40.1115 -40.0436 -40.0343
   -21.0517 -21.0507 -20.4754 -20.4633 -19.4312 -19.4264 -19.4128 -19.4107
   -18.9936 -18.9928 -18.3225 -18.3216 -18.3208 -18.3203 -17.7987 -17.7877
   -12.0705 -12.0693 -12.0683 -12.0678 -11.8844 -11.8750 -11.3323 -11.3313
   -10.2408 -10.2335 -10.1391 -10.1378 -10.1302 -10.1294  -8.5723  -8.5511
    -8.5495  -8.5487  -8.5478  -8.5381  -7.8699  -7.8689  -7.8611  -7.8601
    -7.8277  -7.8204  -7.7755  -7.7441  -7.4929  -7.4911  -6.6176  -6.6093
    -6.3436  -6.3268  -6.2952  -6.2870  -6.1926  -6.1912  -5.7020  -5.6918
    -5.5476  -5.5471  -4.7125  -4.7091  -4.6934  -4.6891  -3.8836  -3.8578
    -1.4136   0.1384   0.8144   1.0052   1.0616   1.1587   1.2618   1.3987
     1.5023   1.5538   1.5766   1.7132   1.7657   1.8762   1.9077   1.9425
     1.9712   2.0960   2.1656   2.1915   2.3235   2.3495

          k =-0.1667 0.2887 0.0000 ( 59267 PWs)   bands (ev):

   -68.6860 -68.6767 -40.3637 -40.2692 -40.1208 -40.1115 -40.0437 -40.0343
   -21.2499 -20.6627 -20.6594 -20.1055 -20.1012 -19.5883 -19.5872 -19.1020
   -18.7003 -18.6945 -18.4576 -18.4552 -18.1971 -18.0871 -18.0803 -17.8518
   -12.4883 -12.2087 -12.2068 -11.8242 -11.8219 -11.6626 -11.1950 -11.1932
   -10.3952 -10.3717 -10.1202 -10.1190  -9.5928  -9.5920  -8.8292  -8.8275
    -8.8241  -8.7692  -8.7664  -8.6001  -8.2009  -8.0386  -8.0094  -7.8334
    -7.8310  -7.4417  -7.4403  -7.2686  -7.2540  -7.2117  -7.2107  -6.9623
    -6.9612  -6.5544  -6.5330  -6.1575  -6.1566  -5.8624  -5.4219  -5.2854
    -5.2667  -5.2037  -4.9026  -4.8960  -4.4976  -4.3477  -4.3350  -3.9722
    -1.4464   0.3907   0.8039   0.9626   1.1162   1.1801   1.2842   1.3596
     1.3998   1.4670   1.5480   1.6178   1.6391   1.7330   1.8864   2.0337
     2.0551   2.0683   2.1397   2.1658   2.3063   2.3455

          k = 0.3333 0.0000 0.0000 ( 59267 PWs)   bands (ev):

   -68.6860 -68.6767 -40.3637 -40.2692 -40.1208 -40.1115 -40.0437 -40.0343
   -21.2494 -20.6904 -20.6315 -20.1148 -20.0898 -19.6181 -19.5598 -19.1046
   -18.7177 -18.6710 -18.4702 -18.4444 -18.1926 -18.1123 -18.0627 -17.8508
   -12.4870 -12.2169 -12.1992 -11.8350 -11.8140 -11.6604 -11.2143 -11.1740
   -10.3951 -10.3705 -10.1354 -10.1049  -9.5992  -9.5839  -8.8346  -8.8278
    -8.8151  -8.7943  -8.7434  -8.6013  -8.2030  -8.0845  -7.9631  -7.8338
    -7.8281  -7.4479  -7.4333  -7.2867  -7.2309  -7.2221  -7.1997  -6.9731
    -6.9520  -6.6033  -6.4906  -6.1607  -6.1526  -5.8686  -5.4216  -5.3035
    -5.2377  -5.2041  -4.9245  -4.8759  -4.4909  -4.3804  -4.3142  -3.9706
    -1.4312   0.2186   0.8556   0.9613   1.1095   1.1547   1.2645   1.4334
     1.4696   1.4947   1.5559   1.7125   1.7545   1.8574   1.8994   1.9151
     2.0168   2.0665   2.1422   2.2227   2.2950   2.3463

          k =-0.1667-0.4811 0.0000 ( 59291 PWs)   bands (ev):

   -68.6860 -68.6767 -40.3637 -40.2692 -40.1208 -40.1115 -40.0437 -40.0343
   -21.1199 -20.9143 -20.7259 -20.1638 -19.8072 -19.4687 -19.3200 -19.1774
   -19.0165 -18.7807 -18.6462 -18.5456 -18.1518 -18.0905 -17.9243 -17.7261
   -12.3527 -12.1175 -12.0482 -11.9096 -11.6844 -11.6624 -11.5562 -10.9453
   -10.8941 -10.6274 -10.5260  -9.8640  -9.6971  -9.3394  -9.1148  -8.6540
    -8.6269  -8.5567  -8.3924  -8.3606  -8.1652  -8.1128  -8.0668  -8.0540
    -7.6933  -7.6272  -7.4981  -7.4777  -7.3463  -7.1738  -7.0714  -6.8522
    -6.6254  -6.3796  -6.1697  -6.1616  -5.9640  -5.9323  -5.7874  -5.7359
    -5.4549  -5.3881  -5.1998  -5.0361  -4.4342  -4.3430  -4.0820  -3.7606
    -1.4373   0.3805   0.8020   0.9232   1.0271   1.1387   1.2263   1.2718
     1.3722   1.4119   1.5657   1.7297   1.7724   1.8909   1.9297   2.0559
     2.1102   2.1292   2.1647   2.2093   2.3146   2.3419

          k = 0.5000-0.0962 0.0000 ( 59291 PWs)   bands (ev):

   -68.6860 -68.6767 -40.3637 -40.2692 -40.1208 -40.1115 -40.0437 -40.0343
   -21.1167 -20.9231 -20.7203 -20.1619 -19.8067 -19.4719 -19.3261 -19.1716
   -19.0182 -18.7828 -18.6331 -18.5523 -18.1390 -18.1088 -17.9211 -17.7256
   -12.3504 -12.1184 -12.0461 -11.9148 -11.6980 -11.6464 -11.5584 -10.9460
   -10.8912 -10.6252 -10.5292  -9.8615  -9.6975  -9.3403  -9.1141  -8.6451
    -8.6276  -8.5544  -8.3983  -8.3853  -8.1630  -8.0969  -8.0814  -8.0406
    -7.6884  -7.6278  -7.4971  -7.4791  -7.3412  -7.1755  -7.0723  -6.8503
    -6.6258  -6.3886  -6.1829  -6.1608  -5.9510  -5.9316  -5.7865  -5.7393
    -5.4562  -5.3913  -5.1761  -5.0481  -4.4138  -4.3708  -4.0782  -3.7597
    -1.4136   0.1402   0.8137   0.9774   1.0472   1.1568   1.2057   1.2707
     1.4098   1.5905   1.6808   1.7850   1.8828   1.9102   1.9663   1.9877
     2.0287   2.0903   2.2008   2.2446   2.3051   2.3544

          k =-0.3333-0.3849 0.0000 ( 59291 PWs)   bands (ev):

   -68.6860 -68.6767 -40.3637 -40.2692 -40.1208 -40.1115 -40.0437 -40.0343
   -21.1178 -20.9200 -20.7225 -20.1614 -19.8095 -19.4692 -19.3200 -19.1761
   -19.0215 -18.7803 -18.6346 -18.5520 -18.1417 -18.1053 -17.9213 -17.7258
   -12.3519 -12.1152 -12.0491 -11.9127 -11.6859 -11.6604 -11.5575 -10.9459
   -10.8912 -10.6246 -10.5296  -9.8620  -9.6977  -9.3400  -9.1154  -8.6480
    -8.6260  -8.5562  -8.3943  -8.3767  -8.1647  -8.1032  -8.0665  -8.0571
    -7.6887  -7.6261  -7.5045  -7.4722  -7.3398  -7.1755  -7.0731  -6.8581
    -6.6235  -6.3811  -6.1693  -6.1630  -5.9621  -5.9304  -5.7868  -5.7470
    -5.4560  -5.3858  -5.1773  -5.0491  -4.4166  -4.3672  -4.0780  -3.7601
    -1.4217   0.2071   0.7999   0.9717   1.0375   1.1591   1.2251   1.2955
     1.3828   1.5006   1.6865   1.7581   1.8547   1.8990   1.9437   2.0269
     2.0663   2.0886   2.1358   2.2084   2.3179   2.3488

          k = 0.5000 0.0962 0.0000 ( 59291 PWs)   bands (ev):

   -68.6860 -68.6767 -40.3637 -40.2692 -40.1208 -40.1115 -40.0437 -40.0343
   -21.1167 -20.9231 -20.7203 -20.1619 -19.8067 -19.4719 -19.3261 -19.1716
   -19.0182 -18.7828 -18.6331 -18.5523 -18.1390 -18.1088 -17.9211 -17.7256
   -12.3504 -12.1185 -12.0461 -11.9148 -11.6979 -11.6464 -11.5584 -10.9460
   -10.8912 -10.6252 -10.5292  -9.8615  -9.6976  -9.3403  -9.1140  -8.6451
    -8.6276  -8.5545  -8.3983  -8.3853  -8.1631  -8.0969  -8.0814  -8.0406
    -7.6885  -7.6277  -7.4972  -7.4792  -7.3412  -7.1756  -7.0722  -6.8503
    -6.6258  -6.3886  -6.1829  -6.1607  -5.9510  -5.9316  -5.7866  -5.7393
    -5.4563  -5.3913  -5.1761  -5.0481  -4.4138  -4.3708  -4.0782  -3.7597
    -1.4136   0.1402   0.8137   0.9774   1.0472   1.1568   1.2057   1.2707
     1.4098   1.5905   1.6807   1.7850   1.8827   1.9102   1.9663   1.9877
     2.0287   2.0904   2.2008   2.2446   2.3051   2.3543

          k =-0.3333 0.3849 0.0000 ( 59291 PWs)   bands (ev):

   -68.6860 -68.6767 -40.3637 -40.2692 -40.1208 -40.1115 -40.0437 -40.0343
   -21.1178 -20.9200 -20.7225 -20.1614 -19.8095 -19.4692 -19.3200 -19.1762
   -19.0215 -18.7803 -18.6346 -18.5520 -18.1417 -18.1053 -17.9213 -17.7258
   -12.3519 -12.1152 -12.0492 -11.9127 -11.6859 -11.6604 -11.5575 -10.9459
   -10.8911 -10.6246 -10.5297  -9.8620  -9.6976  -9.3400  -9.1154  -8.6480
    -8.6261  -8.5562  -8.3944  -8.3767  -8.1647  -8.1032  -8.0665  -8.0571
    -7.6886  -7.6261  -7.5045  -7.4722  -7.3398  -7.1755  -7.0732  -6.8581
    -6.6235  -6.3811  -6.1693  -6.1630  -5.9621  -5.9304  -5.7867  -5.7470
    -5.4559  -5.3857  -5.1774  -5.0491  -4.4166  -4.3672  -4.0780  -3.7601
    -1.4217   0.2071   0.7999   0.9717   1.0374   1.1591   1.2251   1.2955
     1.3828   1.5007   1.6865   1.7581   1.8547   1.8990   1.9436   2.0270
     2.0663   2.0886   2.1357   2.2084   2.3178   2.3490

          k =-0.1667-0.0962 0.0000 ( 59226 PWs)   bands (ev):

   -68.6860 -68.6767 -40.3637 -40.2692 -40.1208 -40.1115 -40.0437 -40.0343
   -21.3163 -20.5390 -20.3510 -20.3385 -19.9944 -19.9807 -19.8080 -18.7358
   -18.7217 -18.3779 -18.3718 -18.3567 -18.2678 -18.2667 -18.0814 -18.0713
   -12.5096 -12.5079 -12.4117 -11.5868 -11.5786 -11.4274 -11.4269 -10.9304
   -10.9265  -9.9343  -9.9288  -9.6793  -9.3788  -9.3762  -9.2336  -9.2307
    -9.0459  -9.0441  -8.9128  -8.3280  -8.3235  -7.9055  -7.9033  -7.8679
    -7.8477  -7.7743  -7.6032  -7.5732  -7.1237  -7.0825  -6.9634  -6.8928
    -6.8883  -6.8455  -6.5363  -6.5306  -6.2613  -5.3433  -5.3056  -5.1466
    -5.0690  -4.8013  -4.7910  -4.7427  -4.6051  -4.6005  -4.3465  -4.3232
    -1.4555   0.4033   0.8043   0.9664   1.0701   1.1532   1.2115   1.3121
     1.4978   1.5278   1.6032   1.6739   1.7890   1.8211   1.8719   1.9361
     2.0208   2.0750   2.1177   2.1320   2.2570   2.3416

          k =-0.0000-0.1925 0.0000 ( 59226 PWs)   bands (ev):

   -68.6860 -68.6767 -40.3637 -40.2692 -40.1208 -40.1115 -40.0437 -40.0343
   -21.3164 -20.5334 -20.3550 -20.3445 -19.9882 -19.9785 -19.8119 -18.7313
   -18.7218 -18.4080 -18.3641 -18.3547 -18.2581 -18.2549 -18.0835 -18.0747
   -12.5177 -12.5001 -12.4115 -11.5869 -11.5796 -11.4355 -11.4161 -10.9311
   -10.9279  -9.9322  -9.9311  -9.6791  -9.3835  -9.3699  -9.2336  -9.2327
    -9.0457  -9.0439  -8.9132  -8.3266  -8.3243  -7.9063  -7.9004  -7.8559
    -7.8449  -7.7763  -7.6154  -7.5888  -7.1019  -7.0824  -6.9618  -6.8933
    -6.8893  -6.8549  -6.5353  -6.5310  -6.2618  -5.3305  -5.3104  -5.1470
    -5.0686  -4.8469  -4.7732  -4.7450  -4.5955  -4.5797  -4.3461  -4.3317
    -1.4626   0.5421   0.7597   0.9550   1.0742   1.1502   1.2286   1.2564
     1.4758   1.4760   1.5335   1.6079   1.7227   1.8167   1.9199   2.0127
     2.0535   2.0632   2.1444   2.1549   2.1924   2.3277

          k = 0.5000-0.8660 0.0000 ( 59292 PWs)   bands (ev):

   -68.6860 -68.6767 -40.3637 -40.2692 -40.1208 -40.1115 -40.0436 -40.0343
   -21.0517 -21.0507 -20.4754 -20.4633 -19.4312 -19.4264 -19.4128 -19.4107
   -18.9935 -18.9928 -18.3225 -18.3216 -18.3208 -18.3203 -17.7987 -17.7877
   -12.0705 -12.0693 -12.0683 -12.0678 -11.8844 -11.8750 -11.3322 -11.3313
   -10.2408 -10.2336 -10.1390 -10.1378 -10.1302 -10.1294  -8.5723  -8.5511
    -8.5495  -8.5487  -8.5478  -8.5381  -7.8699  -7.8688  -7.8612  -7.8601
    -7.8278  -7.8205  -7.7755  -7.7441  -7.4930  -7.4912  -6.6176  -6.6092
    -6.3436  -6.3268  -6.2952  -6.2870  -6.1925  -6.1911  -5.7020  -5.6918
    -5.5477  -5.5472  -4.7125  -4.7091  -4.6934  -4.6891  -3.8836  -3.8578
    -1.4136   0.1384   0.8144   1.0052   1.0616   1.1587   1.2618   1.3987
     1.5023   1.5537   1.5766   1.7132   1.7657   1.8761   1.9077   1.9425
     1.9713   2.0960   2.1657   2.1914   2.3236   2.3494

          k =-1.0000 0.0000 0.0000 ( 59292 PWs)   bands (ev):

   -68.6860 -68.6767 -40.3637 -40.2692 -40.1208 -40.1115 -40.0437 -40.0342
   -21.0792 -21.0201 -20.4772 -20.4668 -19.4333 -19.4289 -19.4135 -19.3987
   -19.0170 -18.9706 -18.3881 -18.3105 -18.3076 -18.2805 -17.7983 -17.7900
   -12.1187 -12.0706 -12.0490 -12.0339 -11.8843 -11.8751 -11.3546 -11.3107
   -10.2461 -10.2450 -10.1340 -10.1339 -10.1276 -10.1269  -8.6131  -8.5860
    -8.5532  -8.5345  -8.5178  -8.4890  -7.8809  -7.8716  -7.8656  -7.8632
    -7.8154  -7.8144  -7.7782  -7.7551  -7.5196  -7.4670  -6.6146  -6.6091
    -6.3448  -6.3284  -6.2933  -6.2700  -6.2136  -6.1733  -5.7310  -5.6665
    -5.5714  -5.5236  -4.8097  -4.6923  -4.6669  -4.6391  -3.8786  -3.8655
    -1.4447   0.5063   0.8182   0.9167   1.0239   1.1199   1.2214   1.2693
     1.3532   1.4941   1.5972   1.6395   1.6695   1.7706   1.8693   1.9339
     2.0768   2.1092   2.1736   2.1767   2.3333   2.3617

     the Fermi energy is    -1.1654 ev

!    total energy              =   -1133.82803855 Ry

     total all-electron energy =     -6753.503742 Ry
     estimated scf accuracy    <       0.00000003 Ry
     smearing contrib. (-TS)   =      -0.00000000 Ry
     internal energy E=F+TS    =   -1133.82803855 Ry

     The total energy is F=E-TS. E is the sum of the following terms:
     one-electron contribution =   -3952.84977749 Ry
     hartree contribution      =    2004.58507028 Ry
     xc contribution           =    -186.01835551 Ry
     ewald contribution        =    1359.83195971 Ry
     DFT-D3 Dispersion         =      -0.13406589 Ry
     one-center paw contrib.   =    -359.24286964 Ry

     total magnetization       =    10.00 Bohr mag/cell
     absolute magnetization    =    10.01 Bohr mag/cell

     convergence has been achieved in  15 iterations

     Writing output data file ./mytmp/Crdimer0.67.save/
 
     init_run     :     81.03s CPU     84.28s WALL (       1 calls)
     electrons    :   2599.53s CPU   2672.72s WALL (       1 calls)

     Called by init_run:
     wfcinit      :     65.71s CPU     67.81s WALL (       1 calls)
     potinit      :      3.99s CPU      4.16s WALL (       1 calls)
     hinit0       :      3.30s CPU      3.41s WALL (       1 calls)

     Called by electrons:
     c_bands      :   1906.21s CPU   1941.78s WALL (      15 calls)
     sum_band     :    568.06s CPU    591.30s WALL (      15 calls)
     v_of_rho     :     27.71s CPU     28.56s WALL (      16 calls)
     newd         :     83.29s CPU     97.23s WALL (      16 calls)
     PAW_pot      :     10.13s CPU     10.42s WALL (      16 calls)
     mix_rho      :      7.58s CPU      7.59s WALL (      15 calls)

     Called by c_bands:
     init_us_2    :     27.05s CPU     27.10s WALL (     930 calls)
     cegterg      :   1854.43s CPU   1889.71s WALL (     450 calls)

     Called by *egterg:
     cdiaghg      :     16.33s CPU     23.73s WALL (    2773 calls)
     h_psi        :   1313.74s CPU   1339.56s WALL (    2803 calls)
     s_psi        :     81.01s CPU     81.14s WALL (    2803 calls)
     g_psi        :      6.06s CPU      6.08s WALL (    2323 calls)

     Called by h_psi:
     h_psi:calbec :     74.78s CPU     75.13s WALL (    2803 calls)
     vloc_psi     :   1132.96s CPU   1157.74s WALL (    2803 calls)
     add_vuspsi   :     89.20s CPU     89.40s WALL (    2803 calls)

     General routines
     calbec       :     92.98s CPU     93.40s WALL (    3253 calls)
     fft          :     24.39s CPU     26.22s WALL (     394 calls)
     ffts         :      0.67s CPU      0.76s WALL (      62 calls)
     fftw         :    923.66s CPU    948.32s WALL (  262090 calls)
     interpolate  :      2.47s CPU      2.62s WALL (      32 calls)
 
     Parallel routines
 
     PWSCF        :  44m42.42s CPU  46m 0.43s WALL

 
   This run was terminated on:   1:47:36  28Mar2021            

=------------------------------------------------------------------------------=
   JOB DONE.
=------------------------------------------------------------------------------=
