
     Program PWSCF v.6.7MaX starts on 27Mar2021 at 18:13:50 

     This program is part of the open-source Quantum ESPRESSO suite
     for quantum simulation of materials; please cite
         "P. Giannozzi et al., J. Phys.:Condens. Matter 21 395502 (2009);
         "P. Giannozzi et al., J. Phys.:Condens. Matter 29 465901 (2017);
         "P. Giannozzi et al., J. Chem. Phys. 152 154105 (2020);
          URL http://www.quantum-espresso.org", 
     in publications or presentations arising from this work. More details at
     http://www.quantum-espresso.org/quote

     Parallel version (MPI), running on    16 processors

     MPI processes distributed on     1 nodes
     R & G space division:  proc/nbgrp/npool/nimage =      16
     Reading input from Crdimer0.665.scf.in

     Current dimensions of program PWSCF are:
     Max number of different atomic species (ntypx) = 10
     Max number of k-points (npk) =  40000
     Max angular momentum in pseudopotentials (lmaxx) =  3
     file N.pbe-n-kjpaw_psl.1.0.0.UPF: wavefunction(s)  2S renormalized
     file Cr.pbe-spn-kjpaw_psl.1.0.0.UPF: wavefunction(s)  3S 3P 3D renormalized
     file Cr.pbe-spn-kjpaw_psl.1.0.0.UPF: wavefunction(s)  3S 3P 3D renormalized

     --------------------------------------------
     Parameters for DFT-D3 Dispersion Correction:
     --------------------------------------------
       Reference C6 values for interpolation: 

         atom   Coordination number   C6
         B          0.000           214.36
         B          0.971           150.74
         B          1.944           106.23
         B          2.913            62.89
         B          4.586            56.06
         N          0.000            50.54
         N          0.994            44.25
         N          2.014            39.35
         N          2.990            31.16
         Cr1        0.000          1381.48
         Cr1        1.827           571.38
         Cr1       10.619           306.69
         Cr2        0.000          1381.48
         Cr2        1.827           571.38
         Cr2       10.619           306.69

       Values used:

         atom   Coordination number  R0_AB[au]  C6      C8
         B          3.336            3.039     62.89   2506.00
         B          3.355            3.039     62.88   2505.48
         B          3.335            3.039     62.89   2506.01
         B          3.336            3.039     62.89   2506.00
         B          3.337            3.039     62.89   2505.96
         B          3.337            3.039     62.89   2505.96
         N          3.134            2.478     31.22    688.70
         N          3.182            2.478     31.20    688.32
         N          3.134            2.478     31.22    688.70
         N          3.134            2.478     31.22    688.70
         N          3.138            2.478     31.22    688.66
         N          3.137            2.478     31.22    688.67
         N          3.137            2.478     31.22    688.67
         N          3.138            2.478     31.22    688.66
         N          3.134            2.478     31.22    688.70
         B          3.359            3.039     62.88   2505.37
         B          3.355            3.039     62.88   2505.48
         B          3.337            3.039     62.89   2505.96
         B          3.337            3.039     62.89   2505.96
         B          3.336            3.039     62.89   2506.00
         B          3.359            3.039     62.88   2505.37
         N          3.137            2.478     31.22    688.67
         B          3.336            3.039     62.89   2505.99
         B          3.366            3.039     62.87   2505.19
         B          3.336            3.039     62.89   2506.00
         N          3.137            2.478     31.22    688.67
         N          3.182            2.478     31.20    688.32
         N          3.137            2.478     31.22    688.67
         N          3.137            2.478     31.22    688.67
         N          3.134            2.478     31.22    688.70
         N          3.134            2.478     31.22    688.70
         B          3.336            3.039     62.89   2506.00
         Cr1        0.763            3.252   1279.89 118119.45
         Cr2        0.763            3.252   1279.89 118119.44

         Molecular C6 ( Ry / a.u.^6 ) =     77988.25


     Subspace diagonalization in iterative solution of the eigenvalue problem:
     one sub-group per band group will be used
     scalapack distributed-memory algorithm (size of sub-group:  4*  4 procs)

 
     Parallelization info
     --------------------
     sticks:   dense  smooth     PW     G-vecs:    dense   smooth      PW
     Min         706     296     80               108834    29636    4252
     Max         707     297     81               108839    29645    4263
     Sum       11311    4741   1285              1741401   474235   68095
 
     Using Slab Decomposition
 


     bravais-lattice index     =            4
     lattice parameter (alat)  =      18.9275  a.u.
     unit-cell volume          =   10553.3021 (a.u.)^3
     number of atoms/cell      =           34
     number of atomic types    =            4
     number of electrons       =       156.00
     number of Kohn-Sham states=           94
     kinetic-energy cutoff     =      48.0000  Ry
     charge density cutoff     =     457.0000  Ry
     scf convergence threshold =      1.0E-07
     mixing beta               =       0.5000
     number of iterations used =            8  plain     mixing
     Exchange-correlation= SLA  PW   PBX  PBC
                           (   1   4   3   4   0   0   0)

     celldm(1)=  18.927497  celldm(2)=   0.000000  celldm(3)=   1.797125
     celldm(4)=   0.000000  celldm(5)=   0.000000  celldm(6)=   0.000000

     crystal axes: (cart. coord. in units of alat)
               a(1) = (   1.000000   0.000000   0.000000 )  
               a(2) = (  -0.500000   0.866025   0.000000 )  
               a(3) = (   0.000000   0.000000   1.797125 )  

     reciprocal axes: (cart. coord. in units 2 pi/alat)
               b(1) = (  1.000000  0.577350  0.000000 )  
               b(2) = (  0.000000  1.154701  0.000000 )  
               b(3) = (  0.000000  0.000000  0.556444 )  


     PseudoPot. # 1 for B  read from file:
     /home/yueyi/q-e-gpu-qe-gpu-6.7/pseudo/B.pbe-n-kjpaw_psl.1.0.0.UPF
     MD5 check sum: d9c678ba5d3b2fd7b74e61139c9288d8
     Pseudo is Projector augmented-wave + core cor, Zval =  3.0
     Generated using "atomic" code by A. Dal Corso  v.5.1.2
     Shape of augmentation charge: PSQ
     Using radial grid of 1059 points,  4 beta functions with: 
                l(1) =   0
                l(2) =   0
                l(3) =   1
                l(4) =   1
     Q(r) pseudized with 0 coefficients 


     PseudoPot. # 2 for N  read from file:
     /home/yueyi/q-e-gpu-qe-gpu-6.7/pseudo/N.pbe-n-kjpaw_psl.1.0.0.UPF
     MD5 check sum: e0e4e94a9c4025c5b51bd7d8793849bd
     Pseudo is Projector augmented-wave + core cor, Zval =  5.0
     Generated using "atomic" code by A. Dal Corso  v.5.1.2
     Shape of augmentation charge: PSQ
     Using radial grid of 1085 points,  4 beta functions with: 
                l(1) =   0
                l(2) =   0
                l(3) =   1
                l(4) =   1
     Q(r) pseudized with 0 coefficients 


     PseudoPot. # 3 for Cr read from file:
     /home/yueyi/q-e-gpu-qe-gpu-6.7/pseudo/Cr.pbe-spn-kjpaw_psl.1.0.0.UPF
     MD5 check sum: 198f1a2427a48552563eee314eba32ba
     Pseudo is Projector augmented-wave + core cor, Zval = 14.0
     Generated using &quot;atomic&quot; code by A. Dal Corso  v.6.3
     Shape of augmentation charge: PSQ
     Using radial grid of 1183 points,  6 beta functions with: 
                l(1) =   0
                l(2) =   0
                l(3) =   1
                l(4) =   1
                l(5) =   2
                l(6) =   2
     Q(r) pseudized with 0 coefficients 


     PseudoPot. # 4 for Cr read from file:
     /home/yueyi/q-e-gpu-qe-gpu-6.7/pseudo/Cr.pbe-spn-kjpaw_psl.1.0.0.UPF
     MD5 check sum: 198f1a2427a48552563eee314eba32ba
     Pseudo is Projector augmented-wave + core cor, Zval = 14.0
     Generated using &quot;atomic&quot; code by A. Dal Corso  v.6.3
     Shape of augmentation charge: PSQ
     Using radial grid of 1183 points,  6 beta functions with: 
                l(1) =   0
                l(2) =   0
                l(3) =   1
                l(4) =   1
                l(5) =   2
                l(6) =   2
     Q(r) pseudized with 0 coefficients 


     atomic species   valence    mass     pseudopotential
        B              3.00    10.81100     B ( 1.00)
        N              5.00    14.00674     N ( 1.00)
        Cr1           14.00    51.99610     Cr( 1.00)
        Cr2           14.00    51.99610     Cr( 1.00)

     Starting magnetic structure 
     atomic species   magnetization
        B            0.000
        N            0.000
        Cr1          1.000
        Cr2          1.000

     No symmetry found



   Cartesian axes

     site n.     atom                  positions (alat units)
         1           B   tau(   1) = (  -0.1250000   0.2165064   0.8985623  )
         2           B   tau(   2) = (   0.3750000   0.6495191   0.8985623  )
         3           B   tau(   3) = (   0.2500000   0.0000000   0.8985623  )
         4           B   tau(   4) = (   0.7500000   0.0000000   0.8985623  )
         5           B   tau(   5) = (   0.1250000   0.2165064   0.8985623  )
         6           B   tau(   6) = (  -0.3750000   0.6495191   0.8985623  )
         7           N   tau(   7) = (   0.7500005   0.2886748   0.8985623  )
         8           N   tau(   8) = (   0.3750005   0.5051812   0.8985623  )
         9           N   tau(   9) = (   0.3750005   0.0721685   0.8985623  )
        10           N   tau(  10) = (   0.6250005   0.0721685   0.8985623  )
        11           N   tau(  11) = (   0.2500005   0.2886748   0.8985623  )
        12           N   tau(  12) = (   0.6250005   0.5051812   0.8985623  )
        13           N   tau(  13) = (   0.0000005   0.2886748   0.8985623  )
        14           N   tau(  14) = (   0.2500005   0.7216875   0.8985623  )
        15           N   tau(  15) = (  -0.2499995   0.7216875   0.8985623  )
        16           B   tau(  16) = (   0.0000000   0.4330127   0.8985623  )
        17           B   tau(  17) = (   0.1250000   0.6495191   0.8985623  )
        18           B   tau(  18) = (  -0.1250000   0.6495191   0.8985623  )
        19           B   tau(  19) = (   0.3750000   0.2165064   0.8985623  )
        20           B   tau(  20) = (   0.6250000   0.2165064   0.8985623  )
        21           B   tau(  21) = (   0.5000000   0.4330127   0.8985623  )
        22           N   tau(  22) = (   0.5000005   0.2886748   0.8985623  )
        23           B   tau(  23) = (  -0.2500000   0.4330127   0.8985623  )
        24           B   tau(  24) = (   0.2500000   0.4330127   0.8985623  )
        25           B   tau(  25) = (   0.5000000   0.0000000   0.8985623  )
        26           N   tau(  26) = (  -0.1249995   0.5051812   0.8985623  )
        27           N   tau(  27) = (   0.1250005   0.5051812   0.8985623  )
        28           N   tau(  28) = (   0.0000005   0.7216875   0.8985623  )
        29           N   tau(  29) = (   0.5000005   0.7216875   0.8985623  )
        30           N   tau(  30) = (   0.1250005   0.0721685   0.8985623  )
        31           N   tau(  31) = (   0.8750005   0.0721685   0.8985623  )
        32           B   tau(  32) = (   0.0000000   0.0000000   0.8985623  )
        33           Cr1 tau(  33) = (   0.1083335   0.5051812   1.1950879  )
        34           Cr2 tau(  34) = (   0.3916668   0.5051812   1.1950879  )

     number of k points=    15  Gaussian smearing, width (Ry)=  0.0000
                       cart. coord. in units 2pi/alat
        k(    1) = (   0.1666667   0.2886751   0.0000000), wk =   0.0740741
        k(    2) = (   0.1666667  -0.4811252   0.0000000), wk =   0.0740741
        k(    3) = (   0.1666667  -0.0962250   0.0000000), wk =   0.0740741
        k(    4) = (  -0.5000000  -0.8660254   0.0000000), wk =   0.0370370
        k(    5) = (  -0.1666667   0.2886751   0.0000000), wk =   0.0740741
        k(    6) = (   0.3333333   0.0000000   0.0000000), wk =   0.0740741
        k(    7) = (  -0.1666667  -0.4811252   0.0000000), wk =   0.0740741
        k(    8) = (   0.5000000  -0.0962250   0.0000000), wk =   0.0740741
        k(    9) = (  -0.3333333  -0.3849002   0.0000000), wk =   0.0740741
        k(   10) = (   0.5000000   0.0962250   0.0000000), wk =   0.0740741
        k(   11) = (  -0.3333333   0.3849002   0.0000000), wk =   0.0740741
        k(   12) = (  -0.1666667  -0.0962250   0.0000000), wk =   0.0740741
        k(   13) = (  -0.0000000  -0.1924501   0.0000000), wk =   0.0740741
        k(   14) = (   0.5000000  -0.8660254   0.0000000), wk =   0.0370370
        k(   15) = (  -1.0000000   0.0000000   0.0000000), wk =   0.0370370

     Dense  grid:  1741401 G-vectors     FFT dimensions: ( 135, 135, 240)

     Smooth grid:   474235 G-vectors     FFT dimensions: (  90,  90, 160)

     Estimated max dynamical RAM per process >     642.21 MB

     Estimated total dynamical RAM >      10.03 GB
     Generating pointlists ...
     new r_m :   0.0595 (alat units)  1.1269 (a.u.) for type    1
     new r_m :   0.0595 (alat units)  1.1269 (a.u.) for type    2
     new r_m :   0.1169 (alat units)  2.2122 (a.u.) for type    3
     new r_m :   0.1169 (alat units)  2.2122 (a.u.) for type    4

     Initial potential from superposition of free atoms

     starting charge  155.99382, renormalised to  156.00000

     negative rho (up, down):  6.786E-03 4.655E-04
     Starting wfcs are  148 randomized atomic wfcs
     Checking if some PAW data can be deallocated... 

     total cpu time spent up to now is      119.9 secs

     Self-consistent Calculation

     iteration #  1     ecut=    48.00 Ry     beta= 0.50
     Davidson diagonalization with overlap
     ethr =  1.00E-02,  avg # of iterations =  2.7

     negative rho (up, down):  4.930E-03 2.862E-03

     total cpu time spent up to now is      389.0 secs

     total energy              =   -1130.75356742 Ry
     estimated scf accuracy    <      11.31951113 Ry

     total magnetization       =    12.00 Bohr mag/cell
     absolute magnetization    =    12.15 Bohr mag/cell

     iteration #  2     ecut=    48.00 Ry     beta= 0.50
     Davidson diagonalization with overlap
     ethr =  7.26E-03,  avg # of iterations =  2.6

     negative rho (up, down):  1.071E-02 1.024E-02

     total cpu time spent up to now is      612.6 secs

     total energy              =   -1132.49604544 Ry
     estimated scf accuracy    <       4.76240480 Ry

     total magnetization       =     9.11 Bohr mag/cell
     absolute magnetization    =     9.48 Bohr mag/cell

     iteration #  3     ecut=    48.00 Ry     beta= 0.50
     Davidson diagonalization with overlap
     ethr =  3.05E-03,  avg # of iterations =  7.3

     negative rho (up, down):  7.498E-03 7.607E-03

     total cpu time spent up to now is      880.3 secs

     total energy              =   -1133.49970899 Ry
     estimated scf accuracy    <       1.40246864 Ry

     total magnetization       =    10.00 Bohr mag/cell
     absolute magnetization    =    10.19 Bohr mag/cell

     iteration #  4     ecut=    48.00 Ry     beta= 0.50
     Davidson diagonalization with overlap
     ethr =  8.99E-04,  avg # of iterations =  6.2

     negative rho (up, down):  6.118E-03 5.585E-03

     total cpu time spent up to now is     1117.9 secs

     total energy              =   -1133.80023841 Ry
     estimated scf accuracy    <       0.26619104 Ry

     total magnetization       =    10.00 Bohr mag/cell
     absolute magnetization    =    10.06 Bohr mag/cell

     iteration #  5     ecut=    48.00 Ry     beta= 0.50
     Davidson diagonalization with overlap
     ethr =  1.71E-04,  avg # of iterations =  9.8

     negative rho (up, down):  4.481E-03 3.920E-03

     total cpu time spent up to now is     1382.5 secs

     total energy              =   -1133.76195627 Ry
     estimated scf accuracy    <       0.48562738 Ry

     total magnetization       =    10.00 Bohr mag/cell
     absolute magnetization    =    10.01 Bohr mag/cell

     iteration #  6     ecut=    48.00 Ry     beta= 0.50
     Davidson diagonalization with overlap
     ethr =  1.71E-04,  avg # of iterations =  6.0

     negative rho (up, down):  3.505E-03 3.989E-03

     total cpu time spent up to now is     1625.7 secs

     total energy              =   -1133.81632934 Ry
     estimated scf accuracy    <       0.08409015 Ry

     total magnetization       =    10.00 Bohr mag/cell
     absolute magnetization    =    10.01 Bohr mag/cell

     iteration #  7     ecut=    48.00 Ry     beta= 0.50
     Davidson diagonalization with overlap
     ethr =  5.39E-05,  avg # of iterations =  6.0

     negative rho (up, down):  3.245E-03 3.794E-03

     total cpu time spent up to now is     1850.0 secs

     total energy              =   -1133.82477157 Ry
     estimated scf accuracy    <       0.01705671 Ry

     total magnetization       =    10.00 Bohr mag/cell
     absolute magnetization    =    10.02 Bohr mag/cell

     iteration #  8     ecut=    48.00 Ry     beta= 0.50
     Davidson diagonalization with overlap
     ethr =  1.09E-05,  avg # of iterations =  6.1

     negative rho (up, down):  3.147E-03 3.780E-03

     total cpu time spent up to now is     2058.1 secs

     total energy              =   -1133.82652157 Ry
     estimated scf accuracy    <       0.00166720 Ry

     total magnetization       =    10.00 Bohr mag/cell
     absolute magnetization    =    10.01 Bohr mag/cell

     iteration #  9     ecut=    48.00 Ry     beta= 0.50
     Davidson diagonalization with overlap
     ethr =  1.07E-06,  avg # of iterations =  8.7

     negative rho (up, down):  3.134E-03 3.800E-03

     total cpu time spent up to now is     2287.2 secs

     total energy              =   -1133.82679529 Ry
     estimated scf accuracy    <       0.00038174 Ry

     total magnetization       =    10.00 Bohr mag/cell
     absolute magnetization    =    10.01 Bohr mag/cell

     iteration # 10     ecut=    48.00 Ry     beta= 0.50
     Davidson diagonalization with overlap
     ethr =  2.45E-07,  avg # of iterations =  2.3

     negative rho (up, down):  3.123E-03 3.803E-03

     total cpu time spent up to now is     2481.1 secs

     total energy              =   -1133.82684232 Ry
     estimated scf accuracy    <       0.00013528 Ry

     total magnetization       =    10.00 Bohr mag/cell
     absolute magnetization    =    10.01 Bohr mag/cell

     iteration # 11     ecut=    48.00 Ry     beta= 0.50
     Davidson diagonalization with overlap
     ethr =  8.67E-08,  avg # of iterations =  3.1

     negative rho (up, down):  3.123E-03 3.810E-03

     total cpu time spent up to now is     2671.5 secs

     total energy              =   -1133.82686422 Ry
     estimated scf accuracy    <       0.00001982 Ry

     total magnetization       =    10.00 Bohr mag/cell
     absolute magnetization    =    10.01 Bohr mag/cell

     iteration # 12     ecut=    48.00 Ry     beta= 0.50
     Davidson diagonalization with overlap
     ethr =  1.27E-08,  avg # of iterations =  4.4

     negative rho (up, down):  3.114E-03 3.810E-03

     total cpu time spent up to now is     2845.9 secs

     total energy              =   -1133.82687212 Ry
     estimated scf accuracy    <       0.00000267 Ry

     total magnetization       =    10.00 Bohr mag/cell
     absolute magnetization    =    10.01 Bohr mag/cell

     iteration # 13     ecut=    48.00 Ry     beta= 0.50
     Davidson diagonalization with overlap
     ethr =  1.71E-09,  avg # of iterations =  4.2

     negative rho (up, down):  3.112E-03 3.812E-03

     total cpu time spent up to now is     3023.8 secs

     total energy              =   -1133.82687340 Ry
     estimated scf accuracy    <       0.00000049 Ry

     total magnetization       =    10.00 Bohr mag/cell
     absolute magnetization    =    10.01 Bohr mag/cell

     iteration # 14     ecut=    48.00 Ry     beta= 0.50
     Davidson diagonalization with overlap
     ethr =  3.15E-10,  avg # of iterations =  3.8

     negative rho (up, down):  3.111E-03 3.813E-03

     total cpu time spent up to now is     3196.9 secs

     total energy              =   -1133.82687374 Ry
     estimated scf accuracy    <       0.00000018 Ry

     total magnetization       =    10.00 Bohr mag/cell
     absolute magnetization    =    10.01 Bohr mag/cell

     iteration # 15     ecut=    48.00 Ry     beta= 0.50
     Davidson diagonalization with overlap
     ethr =  1.18E-10,  avg # of iterations =  4.1

     negative rho (up, down):  3.110E-03 3.814E-03
 
     Magnetic moment per site:
     atom:    1    charge:    0.8804    magn:    0.0002    constr:    0.0000
     atom:    2    charge:    0.8801    magn:    0.0007    constr:    0.0000
     atom:    3    charge:    0.8803    magn:    0.0001    constr:    0.0000
     atom:    4    charge:    0.8801    magn:    0.0002    constr:    0.0000
     atom:    5    charge:    0.8800    magn:    0.0002    constr:    0.0000
     atom:    6    charge:    0.8806    magn:    0.0001    constr:    0.0000
     atom:    7    charge:    2.8609    magn:    0.0005    constr:    0.0000
     atom:    8    charge:    2.8613    magn:    0.0075    constr:    0.0000
     atom:    9    charge:    2.8609    magn:    0.0001    constr:    0.0000
     atom:   10    charge:    2.8609    magn:    0.0003    constr:    0.0000
     atom:   11    charge:    2.8605    magn:    0.0027    constr:    0.0000
     atom:   12    charge:    2.8608    magn:    0.0017    constr:    0.0000
     atom:   13    charge:    2.8596    magn:    0.0025    constr:    0.0000
     atom:   14    charge:    2.8594    magn:    0.0031    constr:    0.0000
     atom:   15    charge:    2.8600    magn:    0.0001    constr:    0.0000
     atom:   16    charge:    0.8807    magn:    0.0004    constr:    0.0000
     atom:   17    charge:    0.8798    magn:    0.0007    constr:    0.0000
     atom:   18    charge:    0.8803    magn:    0.0002    constr:    0.0000
     atom:   19    charge:    0.8794    magn:    0.0002    constr:    0.0000
     atom:   20    charge:    0.8798    magn:    0.0002    constr:    0.0000
     atom:   21    charge:    0.8805    magn:    0.0004    constr:    0.0000
     atom:   22    charge:    2.8609    magn:    0.0025    constr:    0.0000
     atom:   23    charge:    0.8803    magn:    0.0003    constr:    0.0000
     atom:   24    charge:    0.8788    magn:    0.0011    constr:    0.0000
     atom:   25    charge:    0.8798    magn:    0.0003    constr:    0.0000
     atom:   26    charge:    2.8597    magn:    0.0017    constr:    0.0000
     atom:   27    charge:    2.8602    magn:    0.0075    constr:    0.0000
     atom:   28    charge:    2.8597    magn:    0.0022    constr:    0.0000
     atom:   29    charge:    2.8595    magn:    0.0022    constr:    0.0000
     atom:   30    charge:    2.8596    magn:    0.0001    constr:    0.0000
     atom:   31    charge:    2.8596    magn:    0.0003    constr:    0.0000
     atom:   32    charge:    0.8801    magn:    0.0003    constr:    0.0000
     atom:   33    charge:   12.5243    magn:    4.2353    constr:    0.0000
     atom:   34    charge:   12.5243    magn:    4.2353    constr:    0.0000

     total cpu time spent up to now is     3375.2 secs

     End of self-consistent calculation

 ------ SPIN UP ------------


          k = 0.1667 0.2887 0.0000 ( 59267 PWs)   bands (ev):

   -72.8450 -72.8369 -44.3887 -44.3089 -44.2615 -44.2537 -44.2123 -44.2044
   -21.2872 -20.7024 -20.6925 -20.1429 -20.1367 -19.6270 -19.6200 -19.1382
   -18.7424 -18.7283 -18.4935 -18.4905 -18.2354 -18.1231 -18.1118 -17.8873
   -12.5235 -12.2442 -12.2416 -11.8589 -11.8550 -11.6968 -11.2317 -11.2257
   -10.4302 -10.4065 -10.1568 -10.1514  -9.6285  -9.6257  -8.8872  -8.8649
    -8.8624  -8.8049  -8.7986  -8.6340  -8.2344  -8.1089  -8.0520  -7.8684
    -7.8647  -7.4781  -7.4744  -7.3301  -7.3038  -7.2466  -7.2437  -6.9959
    -6.9946  -6.6179  -6.5724  -6.1923  -6.1904  -5.9170  -5.4563  -5.3580
    -5.3115  -5.2378  -4.9531  -4.9437  -4.5550  -4.3976  -4.3734  -4.0208
    -2.8317  -2.0098  -1.9948  -1.7985  -1.6300  -1.5075  -1.4712  -1.4578
    -1.3453  -1.3171  -1.2177  -0.7022   0.6486   0.8164   1.1523   1.1757
     1.2599   1.4293   1.4934   1.5494   1.6030   1.8073

          k = 0.1667-0.4811 0.0000 ( 59291 PWs)   bands (ev):

   -72.8450 -72.8369 -44.3887 -44.3089 -44.2615 -44.2538 -44.2123 -44.2044
   -21.1588 -20.9482 -20.7628 -20.2010 -19.8433 -19.5046 -19.3563 -19.2140
   -19.0522 -18.8157 -18.6884 -18.5777 -18.1928 -18.1201 -17.9601 -17.7618
   -12.3884 -12.1532 -12.0827 -11.9427 -11.7189 -11.6970 -11.5899 -10.9799
   -10.9299 -10.6631 -10.5588  -9.9000  -9.7312  -9.3739  -9.1493  -8.7255
    -8.6620  -8.5919  -8.4257  -8.4057  -8.1994  -8.1695  -8.1013  -8.0871
    -7.7296  -7.6612  -7.5330  -7.5103  -7.4050  -7.2078  -7.1052  -6.9068
    -6.6606  -6.4320  -6.2267  -6.1957  -6.0158  -5.9673  -5.8219  -5.7877
    -5.4883  -5.4372  -5.2709  -5.0747  -4.4983  -4.3768  -4.1308  -3.8093
    -2.8288  -2.0106  -1.9942  -1.7950  -1.6279  -1.5071  -1.4743  -1.4595
    -1.3456  -1.3169  -1.2181  -0.7056   0.5712   0.8210   1.0499   1.1729
     1.2034   1.2514   1.3898   1.8120   1.9231   2.0852

          k = 0.1667-0.0962 0.0000 ( 59226 PWs)   bands (ev):

   -72.8450 -72.8369 -44.3887 -44.3089 -44.2615 -44.2537 -44.2123 -44.2044
   -21.3533 -20.5782 -20.3877 -20.3715 -20.0351 -20.0147 -19.8416 -18.7773
   -18.7562 -18.4182 -18.4076 -18.3904 -18.3038 -18.3021 -18.1162 -18.1039
   -12.5451 -12.5426 -12.4463 -11.6228 -11.6112 -11.4623 -11.4616 -10.9654
   -10.9601  -9.9701  -9.9623  -9.7143  -9.4143  -9.4106  -9.2689  -9.2644
    -9.0805  -9.0777  -8.9737  -8.3638  -8.3576  -7.9432  -7.9374  -7.9356
    -7.8828  -7.8079  -7.6579  -7.6159  -7.1968  -7.1264  -6.9981  -6.9277
    -6.9207  -6.8875  -6.5714  -6.5636  -6.2952  -5.4179  -5.3504  -5.1810
    -5.1032  -4.8675  -4.8446  -4.7855  -4.6540  -4.6461  -4.3961  -4.3634
    -2.8346  -2.0091  -1.9954  -1.8019  -1.6335  -1.5077  -1.4685  -1.4562
    -1.3450  -1.3172  -1.2173  -0.6984   0.7255   0.7946   1.1069   1.1829
     1.2842   1.3281   1.5470   1.5602   1.7445   1.8924

          k =-0.5000-0.8660 0.0000 ( 59292 PWs)   bands (ev):

   -72.8450 -72.8369 -44.3887 -44.3089 -44.2616 -44.2538 -44.2123 -44.2044
   -21.0932 -21.0837 -20.5129 -20.4968 -19.4734 -19.4659 -19.4461 -19.4437
   -19.0322 -19.0250 -18.3640 -18.3609 -18.3528 -18.3518 -17.8355 -17.8212
   -12.1099 -12.1070 -12.1002 -12.0992 -11.9206 -11.9070 -11.3687 -11.3633
   -10.2778 -10.2665 -10.1756 -10.1729 -10.1631 -10.1625  -8.6524  -8.5922
    -8.5854  -8.5813  -8.5802  -8.5789  -7.9070  -7.9044  -7.8936  -7.8930
    -7.8628  -7.8548  -7.8326  -7.7878  -7.5274  -7.5237  -6.6546  -6.6421
    -6.4266  -6.3903  -6.3378  -6.3274  -6.2275  -6.2242  -5.7598  -5.7325
    -5.5842  -5.5789  -4.7786  -4.7750  -4.7319  -4.7229  -3.9386  -3.8988
    -2.8162  -2.0091  -1.9908  -1.7958  -1.6300  -1.5063  -1.4722  -1.4615
    -1.3486  -1.3249  -1.2222  -0.8314   0.7326   0.9726   1.0817   1.2728
     1.3150   1.5179   1.5538   1.6017   1.7403   1.7564

          k =-0.1667 0.2887 0.0000 ( 59267 PWs)   bands (ev):

   -72.8450 -72.8369 -44.3887 -44.3089 -44.2615 -44.2537 -44.2123 -44.2044
   -21.2872 -20.7024 -20.6925 -20.1429 -20.1367 -19.6270 -19.6200 -19.1382
   -18.7423 -18.7283 -18.4935 -18.4905 -18.2354 -18.1231 -18.1119 -17.8873
   -12.5235 -12.2442 -12.2416 -11.8589 -11.8550 -11.6968 -11.2317 -11.2257
   -10.4302 -10.4065 -10.1568 -10.1514  -9.6285  -9.6257  -8.8872  -8.8648
    -8.8624  -8.8049  -8.7986  -8.6340  -8.2344  -8.1089  -8.0520  -7.8684
    -7.8647  -7.4781  -7.4744  -7.3301  -7.3038  -7.2465  -7.2437  -6.9960
    -6.9947  -6.6179  -6.5724  -6.1923  -6.1903  -5.9170  -5.4564  -5.3580
    -5.3115  -5.2377  -4.9531  -4.9437  -4.5550  -4.3976  -4.3734  -4.0208
    -2.8317  -2.0098  -1.9948  -1.7985  -1.6300  -1.5075  -1.4712  -1.4578
    -1.3453  -1.3171  -1.2177  -0.7022   0.6486   0.8164   1.1523   1.1757
     1.2599   1.4293   1.4934   1.5494   1.6030   1.8072

          k = 0.3333 0.0000 0.0000 ( 59267 PWs)   bands (ev):

   -72.8450 -72.8369 -44.3887 -44.3089 -44.2616 -44.2537 -44.2123 -44.2044
   -21.2864 -20.7346 -20.6600 -20.1540 -20.1223 -19.6624 -19.5885 -19.1425
   -18.7604 -18.7003 -18.5095 -18.4773 -18.2288 -18.1546 -18.0919 -17.8856
   -12.5216 -12.2550 -12.2318 -11.8721 -11.8463 -11.6934 -11.2539 -11.2037
   -10.4301 -10.4047 -10.1742 -10.1356  -9.6355  -9.6159  -8.8870  -8.8713
    -8.8507  -8.8351  -8.7716  -8.6360  -8.2379  -8.1661  -7.9936  -7.8684
    -7.8610  -7.4849  -7.4662  -7.3534  -7.2711  -7.2588  -7.2308  -7.0101
    -6.9834  -6.6816  -6.5215  -6.1957  -6.1855  -5.9290  -5.4560  -5.3713
    -5.2763  -5.2384  -4.9852  -4.9157  -4.5453  -4.4399  -4.3509  -4.0178
    -2.8234  -2.0088  -1.9917  -1.7991  -1.6331  -1.5068  -1.4695  -1.4591
    -1.3474  -1.3225  -1.2201  -0.7895   0.7414   0.9913   1.1920   1.2228
     1.2812   1.4340   1.4932   1.5437   1.5621   1.8629

          k =-0.1667-0.4811 0.0000 ( 59291 PWs)   bands (ev):

   -72.8450 -72.8369 -44.3887 -44.3089 -44.2615 -44.2538 -44.2123 -44.2044
   -21.1588 -20.9482 -20.7628 -20.2010 -19.8433 -19.5046 -19.3563 -19.2140
   -19.0522 -18.8157 -18.6885 -18.5777 -18.1928 -18.1201 -17.9601 -17.7618
   -12.3884 -12.1532 -12.0827 -11.9427 -11.7189 -11.6970 -11.5899 -10.9799
   -10.9299 -10.6631 -10.5587  -9.9000  -9.7312  -9.3739  -9.1493  -8.7255
    -8.6619  -8.5919  -8.4257  -8.4057  -8.1993  -8.1695  -8.1014  -8.0872
    -7.7296  -7.6612  -7.5329  -7.5103  -7.4050  -7.2077  -7.1051  -6.9068
    -6.6606  -6.4320  -6.2267  -6.1957  -6.0158  -5.9672  -5.8219  -5.7877
    -5.4884  -5.4372  -5.2709  -5.0747  -4.4983  -4.3768  -4.1307  -3.8093
    -2.8288  -2.0106  -1.9942  -1.7950  -1.6279  -1.5071  -1.4743  -1.4595
    -1.3456  -1.3169  -1.2181  -0.7056   0.5712   0.8210   1.0499   1.1729
     1.2034   1.2514   1.3898   1.8120   1.9231   2.0853

          k = 0.5000-0.0962 0.0000 ( 59291 PWs)   bands (ev):

   -72.8450 -72.8369 -44.3887 -44.3089 -44.2615 -44.2537 -44.2123 -44.2045
   -21.1538 -20.9618 -20.7541 -20.1979 -19.8424 -19.5099 -19.3655 -19.2049
   -19.0549 -18.8191 -18.6680 -18.5880 -18.1754 -18.1462 -17.9550 -17.7609
   -12.3851 -12.1547 -12.0795 -11.9507 -11.7366 -11.6755 -11.5933 -10.9808
   -10.9256 -10.6599 -10.5634  -9.8960  -9.7319  -9.3754  -9.1482  -8.7097
    -8.6635  -8.5885  -8.4521  -8.4328  -8.1960  -8.1404  -8.1204  -8.0701
    -7.7221  -7.6621  -7.5316  -7.5123  -7.3955  -7.2105  -7.1065  -6.9027
    -6.6614  -6.4527  -6.2469  -6.1944  -5.9927  -5.9660  -5.8206  -5.7942
    -5.4905  -5.4436  -5.2273  -5.0957  -4.4711  -4.4178  -4.1240  -3.8074
    -2.8162  -2.0091  -1.9908  -1.7958  -1.6309  -1.5062  -1.4722  -1.4615
    -1.3487  -1.3249  -1.2221  -0.8311   0.7124   0.9710   1.1034   1.2263
     1.2624   1.2826   1.5358   1.7565   1.8458   1.9260

          k =-0.3333-0.3849 0.0000 ( 59291 PWs)   bands (ev):

   -72.8450 -72.8369 -44.3887 -44.3089 -44.2615 -44.2538 -44.2123 -44.2044
   -21.1556 -20.9570 -20.7574 -20.1971 -19.8470 -19.5054 -19.3561 -19.2122
   -19.0601 -18.8151 -18.6706 -18.5873 -18.1796 -18.1407 -17.9553 -17.7613
   -12.3872 -12.1499 -12.0840 -11.9475 -11.7210 -11.6940 -11.5920 -10.9807
   -10.9254 -10.6589 -10.5642  -9.8969  -9.7321  -9.3747  -9.1503  -8.7153
    -8.6606  -8.5913  -8.4352  -8.4282  -8.1984  -8.1515  -8.1015  -8.0915
    -7.7224  -7.6597  -7.5415  -7.5030  -7.3925  -7.2105  -7.1078  -6.9186
    -6.6577  -6.4354  -6.2231  -6.1985  -6.0146  -5.9641  -5.8210  -5.8075
    -5.4901  -5.4332  -5.2298  -5.0975  -4.4749  -4.4123  -4.1237  -3.8081
    -2.8204  -2.0096  -1.9924  -1.7956  -1.6293  -1.5066  -1.4729  -1.4609
    -1.3476  -1.3221  -1.2207  -0.7929   0.6699   0.9312   1.0647   1.1900
     1.2554   1.3228   1.4368   1.8186   1.8745   1.9188

          k = 0.5000 0.0962 0.0000 ( 59291 PWs)   bands (ev):

   -72.8450 -72.8369 -44.3887 -44.3089 -44.2615 -44.2537 -44.2123 -44.2045
   -21.1538 -20.9618 -20.7541 -20.1979 -19.8424 -19.5099 -19.3655 -19.2049
   -19.0549 -18.8191 -18.6680 -18.5880 -18.1754 -18.1462 -17.9550 -17.7609
   -12.3851 -12.1547 -12.0795 -11.9507 -11.7366 -11.6755 -11.5933 -10.9808
   -10.9256 -10.6599 -10.5634  -9.8960  -9.7320  -9.3753  -9.1482  -8.7097
    -8.6635  -8.5885  -8.4521  -8.4328  -8.1960  -8.1404  -8.1204  -8.0700
    -7.7221  -7.6620  -7.5316  -7.5123  -7.3955  -7.2106  -7.1064  -6.9027
    -6.6613  -6.4527  -6.2469  -6.1943  -5.9927  -5.9660  -5.8207  -5.7942
    -5.4905  -5.4436  -5.2273  -5.0957  -4.4711  -4.4178  -4.1240  -3.8074
    -2.8162  -2.0091  -1.9908  -1.7958  -1.6309  -1.5062  -1.4722  -1.4615
    -1.3487  -1.3249  -1.2221  -0.8311   0.7123   0.9710   1.1034   1.2263
     1.2624   1.2826   1.5358   1.7565   1.8458   1.9261

          k =-0.3333 0.3849 0.0000 ( 59291 PWs)   bands (ev):

   -72.8450 -72.8369 -44.3887 -44.3089 -44.2615 -44.2538 -44.2123 -44.2044
   -21.1556 -20.9570 -20.7574 -20.1971 -19.8470 -19.5054 -19.3561 -19.2122
   -19.0601 -18.8152 -18.6706 -18.5873 -18.1796 -18.1407 -17.9553 -17.7613
   -12.3872 -12.1499 -12.0840 -11.9475 -11.7211 -11.6940 -11.5919 -10.9807
   -10.9253 -10.6588 -10.5642  -9.8970  -9.7321  -9.3747  -9.1504  -8.7153
    -8.6607  -8.5912  -8.4352  -8.4282  -8.1985  -8.1515  -8.1014  -8.0915
    -7.7224  -7.6597  -7.5415  -7.5029  -7.3925  -7.2105  -7.1079  -6.9186
    -6.6577  -6.4354  -6.2231  -6.1986  -6.0146  -5.9642  -5.8210  -5.8075
    -5.4900  -5.4332  -5.2298  -5.0975  -4.4749  -4.4123  -4.1236  -3.8081
    -2.8204  -2.0096  -1.9924  -1.7956  -1.6293  -1.5066  -1.4729  -1.4609
    -1.3476  -1.3221  -1.2207  -0.7929   0.6699   0.9312   1.0646   1.1900
     1.2554   1.3228   1.4369   1.8187   1.8745   1.9188

          k =-0.1667-0.0962 0.0000 ( 59226 PWs)   bands (ev):

   -72.8450 -72.8369 -44.3887 -44.3089 -44.2615 -44.2537 -44.2123 -44.2044
   -21.3533 -20.5782 -20.3877 -20.3715 -20.0351 -20.0147 -19.8416 -18.7773
   -18.7562 -18.4182 -18.4076 -18.3904 -18.3038 -18.3021 -18.1162 -18.1039
   -12.5452 -12.5426 -12.4463 -11.6228 -11.6112 -11.4623 -11.4616 -10.9654
   -10.9601  -9.9701  -9.9623  -9.7142  -9.4143  -9.4106  -9.2689  -9.2644
    -9.0805  -9.0777  -8.9737  -8.3639  -8.3577  -7.9432  -7.9373  -7.9356
    -7.8827  -7.8079  -7.6579  -7.6159  -7.1968  -7.1264  -6.9982  -6.9276
    -6.9207  -6.8875  -6.5714  -6.5636  -6.2952  -5.4179  -5.3504  -5.1809
    -5.1033  -4.8675  -4.8446  -4.7855  -4.6540  -4.6461  -4.3961  -4.3634
    -2.8346  -2.0091  -1.9954  -1.8019  -1.6335  -1.5077  -1.4685  -1.4562
    -1.3450  -1.3172  -1.2173  -0.6984   0.7255   0.7946   1.1069   1.1828
     1.2842   1.3282   1.5470   1.5601   1.7443   1.8921

          k =-0.0000-0.1925 0.0000 ( 59226 PWs)   bands (ev):

   -72.8450 -72.8369 -44.3887 -44.3089 -44.2616 -44.2537 -44.2123 -44.2044
   -21.3535 -20.5695 -20.3940 -20.3810 -20.0241 -20.0125 -19.8475 -18.7694
   -18.7571 -18.4584 -18.3992 -18.3884 -18.2878 -18.2867 -18.1193 -18.1094
   -12.5553 -12.5325 -12.4462 -11.6222 -11.6136 -11.4719 -11.4475 -10.9664
   -10.9623  -9.9668  -9.9659  -9.7140  -9.4203  -9.4023  -9.2686  -9.2679
    -9.0797  -9.0776  -8.9746  -8.3614  -8.3592  -7.9408  -7.9334  -7.9111
    -7.8830  -7.8111  -7.6854  -7.6394  -7.1545  -7.1294  -6.9959  -6.9277
    -6.9232  -6.9032  -6.5696  -6.5645  -6.2961  -5.3931  -5.3608  -5.1815
    -5.1027  -4.9346  -4.8178  -4.7953  -4.6305  -4.6187  -4.3953  -4.3789
    -2.8386  -2.0096  -1.9969  -1.8015  -1.6320  -1.5079  -1.4695  -1.4556
    -1.3440  -1.3145  -1.2162  -0.6473   0.6393   0.7487   1.0924   1.1451
     1.2340   1.3922   1.5214   1.5895   1.6965   1.9654

          k = 0.5000-0.8660 0.0000 ( 59292 PWs)   bands (ev):

   -72.8450 -72.8369 -44.3887 -44.3089 -44.2616 -44.2538 -44.2123 -44.2044
   -21.0932 -21.0837 -20.5129 -20.4968 -19.4734 -19.4659 -19.4461 -19.4437
   -19.0321 -19.0250 -18.3640 -18.3609 -18.3529 -18.3518 -17.8355 -17.8212
   -12.1099 -12.1070 -12.1002 -12.0992 -11.9206 -11.9070 -11.3686 -11.3633
   -10.2778 -10.2665 -10.1756 -10.1729 -10.1631 -10.1625  -8.6524  -8.5921
    -8.5854  -8.5813  -8.5802  -8.5789  -7.9070  -7.9044  -7.8937  -7.8929
    -7.8628  -7.8549  -7.8326  -7.7878  -7.5274  -7.5238  -6.6545  -6.6420
    -6.4266  -6.3903  -6.3378  -6.3274  -6.2273  -6.2241  -5.7598  -5.7325
    -5.5843  -5.5790  -4.7786  -4.7750  -4.7319  -4.7229  -3.9386  -3.8988
    -2.8162  -2.0091  -1.9908  -1.7958  -1.6300  -1.5063  -1.4722  -1.4615
    -1.3486  -1.3249  -1.2222  -0.8314   0.7325   0.9726   1.0817   1.2728
     1.3150   1.5179   1.5538   1.6018   1.7402   1.7564

          k =-1.0000 0.0000 0.0000 ( 59292 PWs)   bands (ev):

   -72.8450 -72.8369 -44.3887 -44.3089 -44.2615 -44.2537 -44.2123 -44.2044
   -21.1234 -21.0486 -20.5154 -20.5027 -19.4733 -19.4679 -19.4476 -19.4297
   -19.0589 -19.0000 -18.4423 -18.3437 -18.3404 -18.3055 -17.8348 -17.8250
   -12.1660 -12.1056 -12.0787 -12.0603 -11.9192 -11.9086 -11.3948 -11.3400
   -10.2847 -10.2845 -10.1681 -10.1666 -10.1596 -10.1590  -8.6982  -8.6299
    -8.5884  -8.5651  -8.5446  -8.5193  -7.9212  -7.9096  -7.9001  -7.8974
    -7.8548  -7.8457  -7.8330  -7.8052  -7.5600  -7.4949  -6.6490  -6.6427
    -6.4167  -6.3915  -6.3374  -6.3064  -6.2533  -6.2032  -5.7935  -5.7051
    -5.6116  -5.5518  -4.9089  -4.7403  -4.7029  -4.6641  -3.9285  -3.9135
    -2.8329  -2.0111  -1.9944  -1.7947  -1.6272  -1.5073  -1.4749  -1.4589
    -1.3446  -1.3144  -1.2170  -0.6553   0.5320   0.7465   1.0609   1.1097
     1.2016   1.4915   1.5621   1.5879   1.6104   1.9178

 ------ SPIN DOWN ----------


          k = 0.1667 0.2887 0.0000 ( 59267 PWs)   bands (ev):

   -68.6495 -68.6402 -40.3132 -40.2186 -40.1010 -40.0917 -40.0070 -39.9976
   -21.2826 -20.6969 -20.6894 -20.1383 -20.1326 -19.6215 -19.6171 -19.1338
   -18.7356 -18.7250 -18.4891 -18.4863 -18.2300 -18.1185 -18.1089 -17.8829
   -12.5205 -12.2410 -12.2385 -11.8560 -11.8526 -11.6943 -11.2280 -11.2235
   -10.4269 -10.4034 -10.1527 -10.1491  -9.6251  -9.6231  -8.8628  -8.8609
    -8.8589  -8.8013  -8.7966  -8.6313  -8.2318  -8.0793  -8.0403  -7.8654
    -7.8621  -7.4738  -7.4713  -7.3059  -7.2877  -7.2433  -7.2415  -6.9932
    -6.9920  -6.5925  -6.5629  -6.1891  -6.1877  -5.8973  -5.4529  -5.3265
    -5.2987  -5.2348  -4.9363  -4.9290  -4.5339  -4.3811  -4.3640  -4.0051
    -1.3971   0.4234   0.7579   0.9626   1.1062   1.1666   1.2738   1.3368
     1.3987   1.4496   1.5248   1.6276   1.6582   1.7448   1.9133   2.0534
     2.0826   2.0917   2.1670   2.2002   2.3337   2.3881

          k = 0.1667-0.4811 0.0000 ( 59291 PWs)   bands (ev):

   -68.6495 -68.6402 -40.3132 -40.2186 -40.1010 -40.0917 -40.0070 -39.9976
   -21.1538 -20.9446 -20.7583 -20.1964 -19.8390 -19.5003 -19.3519 -19.2095
   -19.0478 -18.8117 -18.6822 -18.5744 -18.1867 -18.1176 -17.9556 -17.7573
   -12.3853 -12.1501 -12.0799 -11.9401 -11.7163 -11.6941 -11.5871 -10.9767
   -10.9265 -10.6596 -10.5561  -9.8964  -9.7283  -9.3706  -9.1463  -8.6951
    -8.6589  -8.5884  -8.4231  -8.3921  -8.1965  -8.1490  -8.0983  -8.0847
    -7.7262  -7.6584  -7.5299  -7.5079  -7.3830  -7.2045  -7.1024  -6.8872
    -6.6569  -6.4138  -6.2053  -6.1928  -5.9983  -5.9638  -5.8188  -5.7697
    -5.4855  -5.4212  -5.2416  -5.0652  -4.4735  -4.3699  -4.1152  -3.7936
    -1.3875   0.4140   0.7555   0.9144   0.9822   1.1265   1.2351   1.2672
     1.3884   1.4315   1.5734   1.7373   1.7690   1.8838   1.9558   2.0657
     2.1241   2.1398   2.1821   2.2229   2.3409   2.3765

          k = 0.1667-0.0962 0.0000 ( 59226 PWs)   bands (ev):

   -68.6495 -68.6402 -40.3132 -40.2186 -40.1010 -40.0916 -40.0070 -39.9976
   -21.3488 -20.5730 -20.3835 -20.3680 -20.0295 -20.0109 -19.8380 -18.7712
   -18.7522 -18.4123 -18.4032 -18.3868 -18.2992 -18.2978 -18.1123 -18.1003
   -12.5420 -12.5396 -12.4434 -11.6196 -11.6090 -11.4593 -11.4586 -10.9623
   -10.9574  -9.9666  -9.9597  -9.7109  -9.4111  -9.4077  -9.2654  -9.2614
    -9.0775  -9.0751  -8.9501  -8.3601  -8.3544  -7.9377  -7.9347  -7.9084
    -7.8792  -7.8053  -7.6385  -7.6038  -7.1656  -7.1141  -6.9951  -6.9246
    -6.9185  -6.8760  -6.5683  -6.5611  -6.2924  -5.3853  -5.3371  -5.1778
    -5.1001  -4.8401  -4.8252  -4.7745  -4.6384  -4.6328  -4.3797  -4.3526
    -1.4066   0.4354   0.7601   0.9400   1.0879   1.1470   1.1814   1.3230
     1.4731   1.5081   1.6176   1.6858   1.7746   1.8384   1.8718   1.9545
     2.0340   2.1057   2.1466   2.1579   2.2888   2.3791

          k =-0.5000-0.8660 0.0000 ( 59292 PWs)   bands (ev):

   -68.6495 -68.6402 -40.3132 -40.2186 -40.1010 -40.0917 -40.0070 -39.9976
   -21.0871 -21.0807 -20.5084 -20.4932 -19.4672 -19.4606 -19.4427 -19.4401
   -19.0265 -19.0223 -18.3573 -18.3544 -18.3504 -18.3493 -17.8308 -17.8172
   -12.1055 -12.1028 -12.0984 -12.0974 -11.9174 -11.9051 -11.3650 -11.3611
   -10.2739 -10.2640 -10.1717 -10.1697 -10.1605 -10.1597  -8.6162  -8.5857
    -8.5815  -8.5794  -8.5781  -8.5694  -7.9031  -7.9012  -7.8913  -7.8905
    -7.8592  -7.8509  -7.8119  -7.7752  -7.5239  -7.5221  -6.6507  -6.6397
    -6.3874  -6.3657  -6.3266  -6.3171  -6.2237  -6.2216  -5.7380  -5.7224
    -5.5801  -5.5770  -4.7517  -4.7478  -4.7227  -4.7172  -3.9192  -3.8878
    -1.3633   0.1690   0.7672   0.9863   1.0400   1.1833   1.2597   1.3716
     1.4772   1.5287   1.5713   1.7208   1.7781   1.8911   1.9232   1.9677
     2.0101   2.1316   2.1722   2.2032   2.3623   2.3885

          k =-0.1667 0.2887 0.0000 ( 59267 PWs)   bands (ev):

   -68.6495 -68.6402 -40.3132 -40.2186 -40.1010 -40.0917 -40.0070 -39.9976
   -21.2826 -20.6969 -20.6894 -20.1383 -20.1326 -19.6215 -19.6171 -19.1338
   -18.7356 -18.7250 -18.4891 -18.4863 -18.2300 -18.1185 -18.1089 -17.8829
   -12.5205 -12.2410 -12.2385 -11.8560 -11.8527 -11.6943 -11.2279 -11.2235
   -10.4269 -10.4033 -10.1527 -10.1492  -9.6251  -9.6231  -8.8628  -8.8609
    -8.8588  -8.8013  -8.7966  -8.6312  -8.2318  -8.0793  -8.0403  -7.8654
    -7.8621  -7.4738  -7.4713  -7.3059  -7.2877  -7.2433  -7.2415  -6.9933
    -6.9920  -6.5925  -6.5629  -6.1891  -6.1877  -5.8972  -5.4530  -5.3265
    -5.2987  -5.2347  -4.9363  -4.9289  -4.5340  -4.3811  -4.3640  -4.0050
    -1.3971   0.4234   0.7579   0.9626   1.1062   1.1666   1.2738   1.3368
     1.3987   1.4496   1.5247   1.6276   1.6582   1.7448   1.9133   2.0535
     2.0825   2.0917   2.1670   2.2002   2.3338   2.3880

          k = 0.3333 0.0000 0.0000 ( 59267 PWs)   bands (ev):

   -68.6495 -68.6402 -40.3132 -40.2186 -40.1010 -40.0916 -40.0070 -39.9976
   -21.2819 -20.7282 -20.6578 -20.1493 -20.1186 -19.6558 -19.5862 -19.1376
   -18.7537 -18.6981 -18.5046 -18.4731 -18.2241 -18.1482 -18.0896 -17.8814
   -12.5187 -12.2513 -12.2292 -11.8689 -11.8439 -11.6912 -11.2496 -11.2018
   -10.4269 -10.4017 -10.1698 -10.1336  -9.6320  -9.6137  -8.8679  -8.8634
    -8.8467  -8.8307  -8.7702  -8.6330  -8.2349  -8.1304  -7.9886  -7.8655
    -7.8586  -7.4806  -7.4635  -7.3264  -7.2609  -7.2549  -7.2288  -7.0066
    -6.9811  -6.6481  -6.5162  -6.1925  -6.1830  -5.9059  -5.4527  -5.3439
    -5.2659  -5.2353  -4.9630  -4.9049  -4.5255  -4.4190  -4.3417  -4.0029
    -1.3816   0.2497   0.8135   0.9295   1.1168   1.1746   1.2304   1.4170
     1.4535   1.4750   1.5286   1.7272   1.7651   1.8814   1.9068   1.9578
     2.0402   2.1030   2.1727   2.2500   2.3179   2.3863

          k =-0.1667-0.4811 0.0000 ( 59291 PWs)   bands (ev):

   -68.6495 -68.6402 -40.3132 -40.2186 -40.1010 -40.0917 -40.0070 -39.9976
   -21.1538 -20.9446 -20.7583 -20.1964 -19.8390 -19.5003 -19.3519 -19.2095
   -19.0478 -18.8117 -18.6822 -18.5744 -18.1867 -18.1176 -17.9556 -17.7573
   -12.3853 -12.1501 -12.0799 -11.9401 -11.7163 -11.6941 -11.5872 -10.9767
   -10.9266 -10.6596 -10.5561  -9.8964  -9.7283  -9.3707  -9.1464  -8.6951
    -8.6589  -8.5884  -8.4231  -8.3921  -8.1965  -8.1490  -8.0984  -8.0848
    -7.7262  -7.6584  -7.5299  -7.5079  -7.3830  -7.2045  -7.1024  -6.8872
    -6.6570  -6.4138  -6.2053  -6.1928  -5.9983  -5.9637  -5.8188  -5.7697
    -5.4856  -5.4212  -5.2416  -5.0652  -4.4735  -4.3699  -4.1152  -3.7936
    -1.3875   0.4139   0.7555   0.9144   0.9822   1.1265   1.2351   1.2672
     1.3884   1.4315   1.5734   1.7373   1.7690   1.8838   1.9558   2.0657
     2.1241   2.1398   2.1821   2.2231   2.3407   2.3753

          k = 0.5000-0.0962 0.0000 ( 59291 PWs)   bands (ev):

   -68.6495 -68.6402 -40.3132 -40.2186 -40.1010 -40.0917 -40.0070 -39.9976
   -21.1493 -20.9569 -20.7505 -20.1937 -19.8382 -19.5050 -19.3602 -19.2013
   -19.0503 -18.8147 -18.6639 -18.5836 -18.1705 -18.1414 -17.9512 -17.7565
   -12.3822 -12.1515 -12.0770 -11.9474 -11.7331 -11.6739 -11.5902 -10.9776
   -10.9226 -10.6566 -10.5604  -9.8929  -9.7290  -9.3719  -9.1454  -8.6834
    -8.6601  -8.5853  -8.4322  -8.4237  -8.1935  -8.1281  -8.1163  -8.0685
    -7.7194  -7.6592  -7.5286  -7.5099  -7.3761  -7.2069  -7.1036  -6.8845
    -6.6576  -6.4266  -6.2222  -6.1916  -5.9814  -5.9627  -5.8177  -5.7743
    -5.4875  -5.4258  -5.2096  -5.0809  -4.4491  -4.4042  -4.1101  -3.7924
    -1.3633   0.1709   0.7667   0.9562   1.0099   1.1554   1.2266   1.2548
     1.4185   1.6016   1.6746   1.7742   1.8741   1.9397   1.9948   2.0124
     2.0452   2.0870   2.2237   2.2479   2.3406   2.3815

          k =-0.3333-0.3849 0.0000 ( 59291 PWs)   bands (ev):

   -68.6495 -68.6402 -40.3132 -40.2186 -40.1010 -40.0917 -40.0070 -39.9976
   -21.1509 -20.9525 -20.7536 -20.1930 -19.8423 -19.5010 -19.3517 -19.2079
   -19.0550 -18.8111 -18.6661 -18.5831 -18.1743 -18.1365 -17.9514 -17.7569
   -12.3842 -12.1470 -12.0812 -11.9445 -11.7184 -11.6913 -11.5890 -10.9775
   -10.9224 -10.6558 -10.5611  -9.8936  -9.7291  -9.3714  -9.1473  -8.6873
    -8.6577  -8.5877  -8.4258  -8.4133  -8.1957  -8.1361  -8.0982  -8.0889
    -7.7198  -7.6570  -7.5378  -7.5012  -7.3741  -7.2070  -7.1048  -6.8953
    -6.6543  -6.4159  -6.2040  -6.1949  -5.9964  -5.9609  -5.8180  -5.7847
    -5.4871  -5.4183  -5.2115  -5.0821  -4.4528  -4.3994  -4.1099  -3.7928
    -1.3716   0.2382   0.7515   0.9598   1.0007   1.1691   1.2071   1.2859
     1.4075   1.5125   1.6649   1.7647   1.8776   1.9097   1.9670   2.0319
     2.0616   2.1029   2.1567   2.2336   2.3443   2.3858

          k = 0.5000 0.0962 0.0000 ( 59291 PWs)   bands (ev):

   -68.6495 -68.6402 -40.3132 -40.2186 -40.1010 -40.0917 -40.0070 -39.9976
   -21.1493 -20.9569 -20.7505 -20.1937 -19.8382 -19.5050 -19.3602 -19.2013
   -19.0503 -18.8147 -18.6639 -18.5836 -18.1705 -18.1414 -17.9512 -17.7565
   -12.3822 -12.1515 -12.0770 -11.9474 -11.7331 -11.6739 -11.5902 -10.9776
   -10.9226 -10.6567 -10.5604  -9.8929  -9.7290  -9.3719  -9.1454  -8.6834
    -8.6601  -8.5853  -8.4322  -8.4237  -8.1935  -8.1281  -8.1162  -8.0685
    -7.7195  -7.6592  -7.5286  -7.5099  -7.3761  -7.2070  -7.1035  -6.8845
    -6.6575  -6.4266  -6.2222  -6.1916  -5.9814  -5.9626  -5.8178  -5.7743
    -5.4875  -5.4258  -5.2095  -5.0809  -4.4491  -4.4042  -4.1101  -3.7924
    -1.3633   0.1709   0.7667   0.9562   1.0099   1.1554   1.2266   1.2548
     1.4185   1.6016   1.6746   1.7742   1.8740   1.9397   1.9949   2.0124
     2.0452   2.0870   2.2238   2.2479   2.3410   2.3812

          k =-0.3333 0.3849 0.0000 ( 59291 PWs)   bands (ev):

   -68.6495 -68.6402 -40.3132 -40.2186 -40.1010 -40.0917 -40.0070 -39.9976
   -21.1509 -20.9525 -20.7536 -20.1930 -19.8423 -19.5010 -19.3517 -19.2079
   -19.0550 -18.8111 -18.6661 -18.5831 -18.1743 -18.1364 -17.9514 -17.7569
   -12.3842 -12.1470 -12.0812 -11.9445 -11.7184 -11.6913 -11.5889 -10.9775
   -10.9224 -10.6557 -10.5611  -9.8936  -9.7291  -9.3714  -9.1473  -8.6873
    -8.6577  -8.5876  -8.4259  -8.4133  -8.1958  -8.1361  -8.0981  -8.0889
    -7.7197  -7.6570  -7.5378  -7.5011  -7.3742  -7.2069  -7.1049  -6.8953
    -6.6544  -6.4159  -6.2040  -6.1950  -5.9963  -5.9610  -5.8180  -5.7847
    -5.4870  -5.4183  -5.2115  -5.0821  -4.4528  -4.3994  -4.1099  -3.7928
    -1.3716   0.2382   0.7515   0.9598   1.0007   1.1691   1.2071   1.2859
     1.4075   1.5125   1.6649   1.7647   1.8775   1.9097   1.9670   2.0319
     2.0616   2.1029   2.1566   2.2335   2.3436   2.3857

          k =-0.1667-0.0962 0.0000 ( 59226 PWs)   bands (ev):

   -68.6495 -68.6402 -40.3132 -40.2186 -40.1010 -40.0916 -40.0070 -39.9976
   -21.3488 -20.5730 -20.3835 -20.3680 -20.0295 -20.0109 -19.8380 -18.7712
   -18.7522 -18.4123 -18.4032 -18.3868 -18.2992 -18.2978 -18.1122 -18.1003
   -12.5420 -12.5396 -12.4434 -11.6196 -11.6090 -11.4593 -11.4586 -10.9623
   -10.9574  -9.9667  -9.9597  -9.7109  -9.4111  -9.4077  -9.2654  -9.2614
    -9.0775  -9.0751  -8.9501  -8.3601  -8.3544  -7.9377  -7.9346  -7.9084
    -7.8791  -7.8053  -7.6385  -7.6038  -7.1656  -7.1141  -6.9952  -6.9246
    -6.9184  -6.8760  -6.5682  -6.5611  -6.2924  -5.3853  -5.3372  -5.1777
    -5.1002  -4.8400  -4.8252  -4.7746  -4.6384  -4.6328  -4.3797  -4.3526
    -1.4066   0.4354   0.7601   0.9400   1.0879   1.1470   1.1814   1.3230
     1.4731   1.5081   1.6176   1.6858   1.7746   1.8384   1.8717   1.9544
     2.0340   2.1059   2.1464   2.1579   2.2884   2.3799

          k =-0.0000-0.1925 0.0000 ( 59226 PWs)   bands (ev):

   -68.6495 -68.6402 -40.3132 -40.2186 -40.1010 -40.0916 -40.0070 -39.9976
   -21.3490 -20.5652 -20.3887 -20.3769 -20.0197 -20.0090 -19.8434 -18.7641
   -18.7531 -18.4501 -18.3944 -18.3846 -18.2851 -18.2836 -18.1147 -18.1055
   -12.5518 -12.5301 -12.4432 -11.6191 -11.6110 -11.4687 -11.4453 -10.9630
   -10.9594  -9.9638  -9.9628  -9.7106  -9.4168  -9.3999  -9.2653  -9.2644
    -9.0769  -9.0749  -8.9507  -8.3581  -8.3556  -7.9380  -7.9309  -7.8907
    -7.8775  -7.8082  -7.6553  -7.6238  -7.1359  -7.1150  -6.9931  -6.9248
    -6.9204  -6.8881  -6.5666  -6.5619  -6.2931  -5.3674  -5.3440  -5.1783
    -5.0996  -4.8967  -4.8034  -4.7785  -4.6237  -4.6084  -4.3792  -4.3641
    -1.4139   0.5802   0.7133   0.9527   1.0795   1.1090   1.2160   1.2715
     1.4313   1.4933   1.5427   1.6029   1.7376   1.8313   1.8955   2.0330
     2.0774   2.0865   2.1632   2.1774   2.2222   2.3553

          k = 0.5000-0.8660 0.0000 ( 59292 PWs)   bands (ev):

   -68.6495 -68.6402 -40.3132 -40.2186 -40.1010 -40.0917 -40.0070 -39.9976
   -21.0871 -21.0807 -20.5084 -20.4932 -19.4672 -19.4606 -19.4427 -19.4401
   -19.0265 -19.0224 -18.3573 -18.3544 -18.3504 -18.3493 -17.8308 -17.8172
   -12.1055 -12.1028 -12.0985 -12.0974 -11.9174 -11.9051 -11.3649 -11.3611
   -10.2739 -10.2640 -10.1717 -10.1697 -10.1605 -10.1597  -8.6162  -8.5856
    -8.5814  -8.5794  -8.5781  -8.5694  -7.9031  -7.9011  -7.8914  -7.8904
    -7.8592  -7.8509  -7.8119  -7.7752  -7.5240  -7.5221  -6.6506  -6.6397
    -6.3874  -6.3657  -6.3266  -6.3171  -6.2235  -6.2216  -5.7380  -5.7224
    -5.5802  -5.5771  -4.7517  -4.7478  -4.7227  -4.7171  -3.9192  -3.8878
    -1.3633   0.1689   0.7672   0.9863   1.0400   1.1833   1.2597   1.3716
     1.4772   1.5286   1.5713   1.7207   1.7781   1.8910   1.9232   1.9676
     2.0101   2.1316   2.1725   2.2035   2.3644   2.3893

          k =-1.0000 0.0000 0.0000 ( 59292 PWs)   bands (ev):

   -68.6495 -68.6402 -40.3132 -40.2186 -40.1010 -40.0917 -40.0070 -39.9975
   -21.1170 -21.0463 -20.5104 -20.4987 -19.4683 -19.4632 -19.4430 -19.4267
   -19.0526 -18.9978 -18.4329 -18.3396 -18.3362 -18.3048 -17.8299 -17.8209
   -12.1602 -12.1026 -12.0768 -12.0594 -11.9164 -11.9063 -11.3903 -11.3382
   -10.2807 -10.2801 -10.1650 -10.1637 -10.1568 -10.1568  -8.6600  -8.6246
    -8.5854  -8.5631  -8.5438  -8.5145  -7.9163  -7.9059  -7.8971  -7.8944
    -7.8436  -7.8434  -7.8153  -7.7896  -7.5558  -7.4936  -6.6459  -6.6401
    -6.3858  -6.3674  -6.3239  -6.2983  -6.2486  -6.2009  -5.7700  -5.6947
    -5.6070  -5.5505  -4.8647  -4.7237  -4.6943  -4.6625  -3.9121  -3.8982
    -1.3951   0.5433   0.7772   0.9078   0.9756   1.1049   1.2565   1.2905
     1.3693   1.4513   1.5708   1.6194   1.6923   1.7763   1.8860   1.9706
     2.0685   2.1429   2.2035   2.2055   2.3750   2.4059

     the Fermi energy is    -1.1215 ev

!    total energy              =   -1133.82687390 Ry

     total all-electron energy =     -6753.502577 Ry
     estimated scf accuracy    <       0.00000002 Ry
     smearing contrib. (-TS)   =      -0.00000000 Ry
     internal energy E=F+TS    =   -1133.82687390 Ry

     The total energy is F=E-TS. E is the sum of the following terms:
     one-electron contribution =   -3985.46174553 Ry
     hartree contribution      =    2020.78330607 Ry
     xc contribution           =    -186.03097020 Ry
     ewald contribution        =    1376.25997598 Ry
     DFT-D3 Dispersion         =      -0.13460589 Ry
     one-center paw contrib.   =    -359.24283434 Ry

     total magnetization       =    10.00 Bohr mag/cell
     absolute magnetization    =    10.01 Bohr mag/cell

     convergence has been achieved in  15 iterations

     Writing output data file ./mytmp/Crdimer0.665.save/
 
     init_run     :     98.87s CPU    119.57s WALL (       1 calls)
     electrons    :   2907.74s CPU   3255.54s WALL (       1 calls)

     Called by init_run:
     wfcinit      :     82.52s CPU     99.96s WALL (       1 calls)
     potinit      :      4.97s CPU      5.26s WALL (       1 calls)
     hinit0       :      4.04s CPU      4.54s WALL (       1 calls)

     Called by electrons:
     c_bands      :   2185.28s CPU   2451.95s WALL (      15 calls)
     sum_band     :    596.32s CPU    657.45s WALL (      15 calls)
     v_of_rho     :     27.75s CPU     30.23s WALL (      16 calls)
     newd         :     82.87s CPU    101.66s WALL (      16 calls)
     PAW_pot      :     10.40s CPU     10.76s WALL (      16 calls)
     mix_rho      :      7.62s CPU      8.20s WALL (      15 calls)

     Called by c_bands:
     init_us_2    :     27.29s CPU     28.56s WALL (     930 calls)
     cegterg      :   2131.65s CPU   2396.10s WALL (     450 calls)

     Called by *egterg:
     cdiaghg      :     22.16s CPU     34.62s WALL (    2772 calls)
     h_psi        :   1508.67s CPU   1735.47s WALL (    2802 calls)
     s_psi        :     79.76s CPU     82.27s WALL (    2802 calls)
     g_psi        :      5.69s CPU      5.91s WALL (    2322 calls)

     Called by h_psi:
     h_psi:calbec :     87.74s CPU     91.73s WALL (    2802 calls)
     vloc_psi     :   1314.33s CPU   1531.54s WALL (    2802 calls)
     add_vuspsi   :     91.22s CPU     95.93s WALL (    2802 calls)

     General routines
     calbec       :    108.42s CPU    113.20s WALL (    3252 calls)
     fft          :     25.16s CPU     29.63s WALL (     394 calls)
     ffts         :      0.73s CPU      0.86s WALL (      62 calls)
     fftw         :   1137.15s CPU   1359.79s WALL (  259038 calls)
     interpolate  :      2.54s CPU      2.78s WALL (      32 calls)
 
     Parallel routines
 
     PWSCF        :  50m 8.51s CPU  56m18.66s WALL

 
   This run was terminated on:  19:10: 8  27Mar2021            

=------------------------------------------------------------------------------=
   JOB DONE.
=------------------------------------------------------------------------------=
