
     Program PWSCF v.6.7MaX starts on 27Mar2021 at 19:10: 9 

     This program is part of the open-source Quantum ESPRESSO suite
     for quantum simulation of materials; please cite
         "P. Giannozzi et al., J. Phys.:Condens. Matter 21 395502 (2009);
         "P. Giannozzi et al., J. Phys.:Condens. Matter 29 465901 (2017);
         "P. Giannozzi et al., J. Chem. Phys. 152 154105 (2020);
          URL http://www.quantum-espresso.org", 
     in publications or presentations arising from this work. More details at
     http://www.quantum-espresso.org/quote

     Parallel version (MPI), running on    16 processors

     MPI processes distributed on     1 nodes
     R & G space division:  proc/nbgrp/npool/nimage =      16
     Reading input from Crdimer0.655.scf.in

     Current dimensions of program PWSCF are:
     Max number of different atomic species (ntypx) = 10
     Max number of k-points (npk) =  40000
     Max angular momentum in pseudopotentials (lmaxx) =  3
     file N.pbe-n-kjpaw_psl.1.0.0.UPF: wavefunction(s)  2S renormalized
     file Cr.pbe-spn-kjpaw_psl.1.0.0.UPF: wavefunction(s)  3S 3P 3D renormalized
     file Cr.pbe-spn-kjpaw_psl.1.0.0.UPF: wavefunction(s)  3S 3P 3D renormalized

     --------------------------------------------
     Parameters for DFT-D3 Dispersion Correction:
     --------------------------------------------
       Reference C6 values for interpolation: 

         atom   Coordination number   C6
         B          0.000           214.36
         B          0.971           150.74
         B          1.944           106.23
         B          2.913            62.89
         B          4.586            56.06
         N          0.000            50.54
         N          0.994            44.25
         N          2.014            39.35
         N          2.990            31.16
         Cr1        0.000          1381.48
         Cr1        1.827           571.38
         Cr1       10.619           306.69
         Cr2        0.000          1381.48
         Cr2        1.827           571.38
         Cr2       10.619           306.69

       Values used:

         atom   Coordination number  R0_AB[au]  C6      C8
         B          3.336            3.039     62.89   2506.00
         B          3.371            3.039     62.87   2505.01
         B          3.335            3.039     62.89   2506.01
         B          3.336            3.039     62.89   2505.99
         B          3.338            3.039     62.89   2505.95
         B          3.338            3.039     62.89   2505.94
         N          3.134            2.478     31.22    688.70
         N          3.237            2.478     31.19    688.03
         N          3.134            2.478     31.22    688.70
         N          3.134            2.478     31.22    688.70
         N          3.139            2.478     31.22    688.65
         N          3.138            2.478     31.22    688.66
         N          3.138            2.478     31.22    688.66
         N          3.139            2.478     31.22    688.65
         N          3.134            2.478     31.22    688.70
         B          3.381            3.039     62.86   2504.71
         B          3.371            3.039     62.87   2505.01
         B          3.338            3.039     62.89   2505.94
         B          3.338            3.039     62.89   2505.95
         B          3.336            3.039     62.89   2506.00
         B          3.381            3.039     62.86   2504.71
         N          3.138            2.478     31.22    688.66
         B          3.336            3.039     62.89   2505.98
         B          3.389            3.039     62.85   2504.42
         B          3.336            3.039     62.89   2506.00
         N          3.138            2.478     31.22    688.66
         N          3.237            2.478     31.19    688.03
         N          3.138            2.478     31.22    688.66
         N          3.138            2.478     31.22    688.66
         N          3.134            2.478     31.22    688.70
         N          3.134            2.478     31.22    688.70
         B          3.336            3.039     62.89   2506.00
         Cr1        0.875            3.252   1033.29  95360.64
         Cr2        0.875            3.252   1033.29  95360.59

         Molecular C6 ( Ry / a.u.^6 ) =     74962.90


     Subspace diagonalization in iterative solution of the eigenvalue problem:
     one sub-group per band group will be used
     scalapack distributed-memory algorithm (size of sub-group:  4*  4 procs)

 
     Parallelization info
     --------------------
     sticks:   dense  smooth     PW     G-vecs:    dense   smooth      PW
     Min         706     296     80               108834    29636    4252
     Max         707     297     81               108839    29645    4263
     Sum       11311    4741   1285              1741401   474235   68095
 
     Using Slab Decomposition
 


     bravais-lattice index     =            4
     lattice parameter (alat)  =      18.9275  a.u.
     unit-cell volume          =   10553.3021 (a.u.)^3
     number of atoms/cell      =           34
     number of atomic types    =            4
     number of electrons       =       156.00
     number of Kohn-Sham states=           94
     kinetic-energy cutoff     =      48.0000  Ry
     charge density cutoff     =     457.0000  Ry
     scf convergence threshold =      1.0E-07
     mixing beta               =       0.5000
     number of iterations used =            8  plain     mixing
     Exchange-correlation= SLA  PW   PBX  PBC
                           (   1   4   3   4   0   0   0)

     celldm(1)=  18.927497  celldm(2)=   0.000000  celldm(3)=   1.797125
     celldm(4)=   0.000000  celldm(5)=   0.000000  celldm(6)=   0.000000

     crystal axes: (cart. coord. in units of alat)
               a(1) = (   1.000000   0.000000   0.000000 )  
               a(2) = (  -0.500000   0.866025   0.000000 )  
               a(3) = (   0.000000   0.000000   1.797125 )  

     reciprocal axes: (cart. coord. in units 2 pi/alat)
               b(1) = (  1.000000  0.577350  0.000000 )  
               b(2) = (  0.000000  1.154701  0.000000 )  
               b(3) = (  0.000000  0.000000  0.556444 )  


     PseudoPot. # 1 for B  read from file:
     /home/yueyi/q-e-gpu-qe-gpu-6.7/pseudo/B.pbe-n-kjpaw_psl.1.0.0.UPF
     MD5 check sum: d9c678ba5d3b2fd7b74e61139c9288d8
     Pseudo is Projector augmented-wave + core cor, Zval =  3.0
     Generated using "atomic" code by A. Dal Corso  v.5.1.2
     Shape of augmentation charge: PSQ
     Using radial grid of 1059 points,  4 beta functions with: 
                l(1) =   0
                l(2) =   0
                l(3) =   1
                l(4) =   1
     Q(r) pseudized with 0 coefficients 


     PseudoPot. # 2 for N  read from file:
     /home/yueyi/q-e-gpu-qe-gpu-6.7/pseudo/N.pbe-n-kjpaw_psl.1.0.0.UPF
     MD5 check sum: e0e4e94a9c4025c5b51bd7d8793849bd
     Pseudo is Projector augmented-wave + core cor, Zval =  5.0
     Generated using "atomic" code by A. Dal Corso  v.5.1.2
     Shape of augmentation charge: PSQ
     Using radial grid of 1085 points,  4 beta functions with: 
                l(1) =   0
                l(2) =   0
                l(3) =   1
                l(4) =   1
     Q(r) pseudized with 0 coefficients 


     PseudoPot. # 3 for Cr read from file:
     /home/yueyi/q-e-gpu-qe-gpu-6.7/pseudo/Cr.pbe-spn-kjpaw_psl.1.0.0.UPF
     MD5 check sum: 198f1a2427a48552563eee314eba32ba
     Pseudo is Projector augmented-wave + core cor, Zval = 14.0
     Generated using &quot;atomic&quot; code by A. Dal Corso  v.6.3
     Shape of augmentation charge: PSQ
     Using radial grid of 1183 points,  6 beta functions with: 
                l(1) =   0
                l(2) =   0
                l(3) =   1
                l(4) =   1
                l(5) =   2
                l(6) =   2
     Q(r) pseudized with 0 coefficients 


     PseudoPot. # 4 for Cr read from file:
     /home/yueyi/q-e-gpu-qe-gpu-6.7/pseudo/Cr.pbe-spn-kjpaw_psl.1.0.0.UPF
     MD5 check sum: 198f1a2427a48552563eee314eba32ba
     Pseudo is Projector augmented-wave + core cor, Zval = 14.0
     Generated using &quot;atomic&quot; code by A. Dal Corso  v.6.3
     Shape of augmentation charge: PSQ
     Using radial grid of 1183 points,  6 beta functions with: 
                l(1) =   0
                l(2) =   0
                l(3) =   1
                l(4) =   1
                l(5) =   2
                l(6) =   2
     Q(r) pseudized with 0 coefficients 


     atomic species   valence    mass     pseudopotential
        B              3.00    10.81100     B ( 1.00)
        N              5.00    14.00674     N ( 1.00)
        Cr1           14.00    51.99610     Cr( 1.00)
        Cr2           14.00    51.99610     Cr( 1.00)

     Starting magnetic structure 
     atomic species   magnetization
        B            0.000
        N            0.000
        Cr1          1.000
        Cr2          1.000

     No symmetry found



   Cartesian axes

     site n.     atom                  positions (alat units)
         1           B   tau(   1) = (  -0.1250000   0.2165064   0.8985623  )
         2           B   tau(   2) = (   0.3750000   0.6495191   0.8985623  )
         3           B   tau(   3) = (   0.2500000   0.0000000   0.8985623  )
         4           B   tau(   4) = (   0.7500000   0.0000000   0.8985623  )
         5           B   tau(   5) = (   0.1250000   0.2165064   0.8985623  )
         6           B   tau(   6) = (  -0.3750000   0.6495191   0.8985623  )
         7           N   tau(   7) = (   0.7500005   0.2886748   0.8985623  )
         8           N   tau(   8) = (   0.3750005   0.5051812   0.8985623  )
         9           N   tau(   9) = (   0.3750005   0.0721685   0.8985623  )
        10           N   tau(  10) = (   0.6250005   0.0721685   0.8985623  )
        11           N   tau(  11) = (   0.2500005   0.2886748   0.8985623  )
        12           N   tau(  12) = (   0.6250005   0.5051812   0.8985623  )
        13           N   tau(  13) = (   0.0000005   0.2886748   0.8985623  )
        14           N   tau(  14) = (   0.2500005   0.7216875   0.8985623  )
        15           N   tau(  15) = (  -0.2499995   0.7216875   0.8985623  )
        16           B   tau(  16) = (   0.0000000   0.4330127   0.8985623  )
        17           B   tau(  17) = (   0.1250000   0.6495191   0.8985623  )
        18           B   tau(  18) = (  -0.1250000   0.6495191   0.8985623  )
        19           B   tau(  19) = (   0.3750000   0.2165064   0.8985623  )
        20           B   tau(  20) = (   0.6250000   0.2165064   0.8985623  )
        21           B   tau(  21) = (   0.5000000   0.4330127   0.8985623  )
        22           N   tau(  22) = (   0.5000005   0.2886748   0.8985623  )
        23           B   tau(  23) = (  -0.2500000   0.4330127   0.8985623  )
        24           B   tau(  24) = (   0.2500000   0.4330127   0.8985623  )
        25           B   tau(  25) = (   0.5000000   0.0000000   0.8985623  )
        26           N   tau(  26) = (  -0.1249995   0.5051812   0.8985623  )
        27           N   tau(  27) = (   0.1250005   0.5051812   0.8985623  )
        28           N   tau(  28) = (   0.0000005   0.7216875   0.8985623  )
        29           N   tau(  29) = (   0.5000005   0.7216875   0.8985623  )
        30           N   tau(  30) = (   0.1250005   0.0721685   0.8985623  )
        31           N   tau(  31) = (   0.8750005   0.0721685   0.8985623  )
        32           B   tau(  32) = (   0.0000000   0.0000000   0.8985623  )
        33           Cr1 tau(  33) = (   0.1083335   0.5051812   1.1771166  )
        34           Cr2 tau(  34) = (   0.3916668   0.5051812   1.1771166  )

     number of k points=    15  Gaussian smearing, width (Ry)=  0.0000
                       cart. coord. in units 2pi/alat
        k(    1) = (   0.1666667   0.2886751   0.0000000), wk =   0.0740741
        k(    2) = (   0.1666667  -0.4811252   0.0000000), wk =   0.0740741
        k(    3) = (   0.1666667  -0.0962250   0.0000000), wk =   0.0740741
        k(    4) = (  -0.5000000  -0.8660254   0.0000000), wk =   0.0370370
        k(    5) = (  -0.1666667   0.2886751   0.0000000), wk =   0.0740741
        k(    6) = (   0.3333333   0.0000000   0.0000000), wk =   0.0740741
        k(    7) = (  -0.1666667  -0.4811252   0.0000000), wk =   0.0740741
        k(    8) = (   0.5000000  -0.0962250   0.0000000), wk =   0.0740741
        k(    9) = (  -0.3333333  -0.3849002   0.0000000), wk =   0.0740741
        k(   10) = (   0.5000000   0.0962250   0.0000000), wk =   0.0740741
        k(   11) = (  -0.3333333   0.3849002   0.0000000), wk =   0.0740741
        k(   12) = (  -0.1666667  -0.0962250   0.0000000), wk =   0.0740741
        k(   13) = (  -0.0000000  -0.1924501   0.0000000), wk =   0.0740741
        k(   14) = (   0.5000000  -0.8660254   0.0000000), wk =   0.0370370
        k(   15) = (  -1.0000000   0.0000000   0.0000000), wk =   0.0370370

     Dense  grid:  1741401 G-vectors     FFT dimensions: ( 135, 135, 240)

     Smooth grid:   474235 G-vectors     FFT dimensions: (  90,  90, 160)

     Estimated max dynamical RAM per process >     642.21 MB

     Estimated total dynamical RAM >      10.03 GB
     Generating pointlists ...
     new r_m :   0.0595 (alat units)  1.1269 (a.u.) for type    1
     new r_m :   0.0595 (alat units)  1.1269 (a.u.) for type    2
     new r_m :   0.1151 (alat units)  2.1787 (a.u.) for type    3
     new r_m :   0.1151 (alat units)  2.1787 (a.u.) for type    4

     Initial potential from superposition of free atoms

     starting charge  155.99382, renormalised to  156.00000

     negative rho (up, down):  6.926E-03 4.655E-04
     Starting wfcs are  148 randomized atomic wfcs
     Checking if some PAW data can be deallocated... 

     total cpu time spent up to now is       90.2 secs

     Self-consistent Calculation

     iteration #  1     ecut=    48.00 Ry     beta= 0.50
     Davidson diagonalization with overlap
     ethr =  1.00E-02,  avg # of iterations =  2.8

     negative rho (up, down):  5.030E-03 2.808E-03

     total cpu time spent up to now is      297.4 secs

     total energy              =   -1130.77013903 Ry
     estimated scf accuracy    <      11.25165770 Ry

     total magnetization       =    12.00 Bohr mag/cell
     absolute magnetization    =    12.13 Bohr mag/cell

     iteration #  2     ecut=    48.00 Ry     beta= 0.50
     Davidson diagonalization with overlap
     ethr =  7.21E-03,  avg # of iterations =  2.6

     negative rho (up, down):  1.123E-02 1.093E-02

     total cpu time spent up to now is      490.0 secs

     total energy              =   -1132.42046077 Ry
     estimated scf accuracy    <       4.93463640 Ry

     total magnetization       =     9.11 Bohr mag/cell
     absolute magnetization    =     9.41 Bohr mag/cell

     iteration #  3     ecut=    48.00 Ry     beta= 0.50
     Davidson diagonalization with overlap
     ethr =  3.16E-03,  avg # of iterations =  7.0

     negative rho (up, down):  8.456E-03 8.670E-03

     total cpu time spent up to now is      705.5 secs

     total energy              =   -1133.47132419 Ry
     estimated scf accuracy    <       1.57135909 Ry

     total magnetization       =    10.00 Bohr mag/cell
     absolute magnetization    =    10.18 Bohr mag/cell

     iteration #  4     ecut=    48.00 Ry     beta= 0.50
     Davidson diagonalization with overlap
     ethr =  1.01E-03,  avg # of iterations =  5.6

     negative rho (up, down):  5.455E-03 5.068E-03

     total cpu time spent up to now is      891.2 secs

     total energy              =   -1133.77891542 Ry
     estimated scf accuracy    <       0.24416849 Ry

     total magnetization       =    10.44 Bohr mag/cell
     absolute magnetization    =    10.48 Bohr mag/cell

     iteration #  5     ecut=    48.00 Ry     beta= 0.50
     Davidson diagonalization with overlap
     ethr =  1.57E-04,  avg # of iterations = 10.3

     negative rho (up, down):  5.464E-03 3.802E-03

     total cpu time spent up to now is     1144.2 secs

     total energy              =   -1133.73275617 Ry
     estimated scf accuracy    <       0.86551043 Ry

     total magnetization       =    10.00 Bohr mag/cell
     absolute magnetization    =    10.01 Bohr mag/cell

     iteration #  6     ecut=    48.00 Ry     beta= 0.50
     Davidson diagonalization with overlap
     ethr =  1.57E-04,  avg # of iterations =  6.4

     negative rho (up, down):  3.712E-03 4.104E-03

     total cpu time spent up to now is     1375.3 secs

     total energy              =   -1133.80022944 Ry
     estimated scf accuracy    <       0.13459522 Ry

     total magnetization       =    10.00 Bohr mag/cell
     absolute magnetization    =    10.01 Bohr mag/cell

     iteration #  7     ecut=    48.00 Ry     beta= 0.50
     Davidson diagonalization with overlap
     ethr =  8.63E-05,  avg # of iterations =  6.8

     negative rho (up, down):  3.258E-03 3.807E-03

     total cpu time spent up to now is     1565.1 secs

     total energy              =   -1133.81737387 Ry
     estimated scf accuracy    <       0.02913866 Ry

     total magnetization       =    10.00 Bohr mag/cell
     absolute magnetization    =    10.02 Bohr mag/cell

     iteration #  8     ecut=    48.00 Ry     beta= 0.50
     Davidson diagonalization with overlap
     ethr =  1.87E-05,  avg # of iterations =  5.3

     negative rho (up, down):  3.148E-03 3.771E-03

     total cpu time spent up to now is     1743.3 secs

     total energy              =   -1133.81965367 Ry
     estimated scf accuracy    <       0.00375784 Ry

     total magnetization       =    10.00 Bohr mag/cell
     absolute magnetization    =    10.01 Bohr mag/cell

     iteration #  9     ecut=    48.00 Ry     beta= 0.50
     Davidson diagonalization with overlap
     c_bands:  1 eigenvalues not converged
     c_bands:  1 eigenvalues not converged
     c_bands:  1 eigenvalues not converged
     c_bands:  1 eigenvalues not converged
     c_bands:  1 eigenvalues not converged
     ethr =  2.41E-06,  avg # of iterations = 12.3

     negative rho (up, down):  3.126E-03 3.781E-03

     total cpu time spent up to now is     1985.1 secs

     total energy              =   -1133.82012001 Ry
     estimated scf accuracy    <       0.00118523 Ry

     total magnetization       =    10.00 Bohr mag/cell
     absolute magnetization    =    10.01 Bohr mag/cell

     iteration # 10     ecut=    48.00 Ry     beta= 0.50
     Davidson diagonalization with overlap
     c_bands:  1 eigenvalues not converged
     c_bands:  1 eigenvalues not converged
     c_bands:  1 eigenvalues not converged
     ethr =  7.60E-07,  avg # of iterations =  3.9

     negative rho (up, down):  3.125E-03 3.790E-03

     total cpu time spent up to now is     2189.4 secs

     total energy              =   -1133.82017991 Ry
     estimated scf accuracy    <       0.00058287 Ry

     total magnetization       =    10.00 Bohr mag/cell
     absolute magnetization    =    10.01 Bohr mag/cell

     iteration # 11     ecut=    48.00 Ry     beta= 0.50
     Davidson diagonalization with overlap
     c_bands:  1 eigenvalues not converged
     c_bands:  1 eigenvalues not converged
     ethr =  3.74E-07,  avg # of iterations =  4.5

     negative rho (up, down):  3.122E-03 3.797E-03

     total cpu time spent up to now is     2391.3 secs

     total energy              =   -1133.82023508 Ry
     estimated scf accuracy    <       0.00011289 Ry

     total magnetization       =    10.00 Bohr mag/cell
     absolute magnetization    =    10.01 Bohr mag/cell

     iteration # 12     ecut=    48.00 Ry     beta= 0.50
     Davidson diagonalization with overlap
     ethr =  7.24E-08,  avg # of iterations =  4.5

     negative rho (up, down):  3.116E-03 3.805E-03

     total cpu time spent up to now is     2593.3 secs

     total energy              =   -1133.82025136 Ry
     estimated scf accuracy    <       0.00002236 Ry

     total magnetization       =    10.00 Bohr mag/cell
     absolute magnetization    =    10.01 Bohr mag/cell

     iteration # 13     ecut=    48.00 Ry     beta= 0.50
     Davidson diagonalization with overlap
     ethr =  1.43E-08,  avg # of iterations =  4.4

     negative rho (up, down):  3.110E-03 3.807E-03

     total cpu time spent up to now is     2798.0 secs

     total energy              =   -1133.82025706 Ry
     estimated scf accuracy    <       0.00000279 Ry

     total magnetization       =    10.00 Bohr mag/cell
     absolute magnetization    =    10.01 Bohr mag/cell

     iteration # 14     ecut=    48.00 Ry     beta= 0.50
     Davidson diagonalization with overlap
     ethr =  1.79E-09,  avg # of iterations =  6.0

     negative rho (up, down):  3.110E-03 3.809E-03

     total cpu time spent up to now is     3016.3 secs

     total energy              =   -1133.82025842 Ry
     estimated scf accuracy    <       0.00000054 Ry

     total magnetization       =    10.00 Bohr mag/cell
     absolute magnetization    =    10.01 Bohr mag/cell

     iteration # 15     ecut=    48.00 Ry     beta= 0.50
     Davidson diagonalization with overlap
     ethr =  3.45E-10,  avg # of iterations =  4.4

     negative rho (up, down):  3.109E-03 3.810E-03

     total cpu time spent up to now is     3224.7 secs

     total energy              =   -1133.82025878 Ry
     estimated scf accuracy    <       0.00000027 Ry

     total magnetization       =    10.00 Bohr mag/cell
     absolute magnetization    =    10.01 Bohr mag/cell

     iteration # 16     ecut=    48.00 Ry     beta= 0.50
     Davidson diagonalization with overlap
     ethr =  1.72E-10,  avg # of iterations =  3.9

     negative rho (up, down):  3.109E-03 3.811E-03
 
     Magnetic moment per site:
     atom:    1    charge:    0.8803    magn:    0.0004    constr:    0.0000
     atom:    2    charge:    0.8804    magn:    0.0015    constr:    0.0000
     atom:    3    charge:    0.8802    magn:    0.0002    constr:    0.0000
     atom:    4    charge:    0.8800    magn:    0.0004    constr:    0.0000
     atom:    5    charge:    0.8799    magn:    0.0005    constr:    0.0000
     atom:    6    charge:    0.8806    magn:    0.0003    constr:    0.0000
     atom:    7    charge:    2.8609    magn:    0.0009    constr:    0.0000
     atom:    8    charge:    2.8619    magn:    0.0068    constr:    0.0000
     atom:    9    charge:    2.8609    magn:    0.0002    constr:    0.0000
     atom:   10    charge:    2.8608    magn:    0.0005    constr:    0.0000
     atom:   11    charge:    2.8604    magn:    0.0039    constr:    0.0000
     atom:   12    charge:    2.8607    magn:    0.0022    constr:    0.0000
     atom:   13    charge:    2.8595    magn:    0.0035    constr:    0.0000
     atom:   14    charge:    2.8592    magn:    0.0044    constr:    0.0000
     atom:   15    charge:    2.8600    magn:    0.0000    constr:    0.0000
     atom:   16    charge:    0.8813    magn:    0.0013    constr:    0.0000
     atom:   17    charge:    0.8801    magn:    0.0015    constr:    0.0000
     atom:   18    charge:    0.8803    magn:    0.0003    constr:    0.0000
     atom:   19    charge:    0.8793    magn:    0.0005    constr:    0.0000
     atom:   20    charge:    0.8797    magn:    0.0004    constr:    0.0000
     atom:   21    charge:    0.8811    magn:    0.0013    constr:    0.0000
     atom:   22    charge:    2.8608    magn:    0.0035    constr:    0.0000
     atom:   23    charge:    0.8802    magn:    0.0005    constr:    0.0000
     atom:   24    charge:    0.8789    magn:    0.0023    constr:    0.0000
     atom:   25    charge:    0.8798    magn:    0.0005    constr:    0.0000
     atom:   26    charge:    2.8596    magn:    0.0022    constr:    0.0000
     atom:   27    charge:    2.8607    magn:    0.0068    constr:    0.0000
     atom:   28    charge:    2.8596    magn:    0.0031    constr:    0.0000
     atom:   29    charge:    2.8595    magn:    0.0031    constr:    0.0000
     atom:   30    charge:    2.8596    magn:    0.0002    constr:    0.0000
     atom:   31    charge:    2.8595    magn:    0.0005    constr:    0.0000
     atom:   32    charge:    0.8800    magn:    0.0005    constr:    0.0000
     atom:   33    charge:   12.4850    magn:    4.2029    constr:    0.0000
     atom:   34    charge:   12.4849    magn:    4.2027    constr:    0.0000

     total cpu time spent up to now is     3430.3 secs

     End of self-consistent calculation

 ------ SPIN UP ------------


          k = 0.1667 0.2887 0.0000 ( 59267 PWs)   bands (ev):

   -72.7600 -72.7520 -44.2824 -44.2024 -44.2003 -44.1924 -44.1335 -44.1256
   -21.3604 -20.7806 -20.7553 -20.2160 -20.2043 -19.7016 -19.6815 -19.2076
   -18.8245 -18.7925 -18.5606 -18.5566 -18.3075 -18.1898 -18.1701 -17.9533
   -12.5951 -12.3160 -12.3113 -11.9291 -11.9197 -11.7655 -11.3056 -11.2892
   -10.4993 -10.4757 -10.2284 -10.2150  -9.6999  -9.6922  -8.9864  -8.9354
    -8.9312  -8.8776  -8.8598  -8.7008  -8.3002  -8.2117  -8.1234  -7.9379
    -7.9310  -7.5486  -7.5409  -7.4240  -7.3820  -7.3154  -7.3079  -7.0619
    -7.0600  -6.7092  -6.6384  -6.2601  -6.2563  -6.0015  -5.5228  -5.4660
    -5.3858  -5.3038  -5.0298  -5.0182  -4.6431  -4.4706  -4.4362  -4.0952
    -2.7331  -1.9396  -1.9231  -1.7232  -1.5874  -1.4378  -1.4084  -1.3742
    -1.2706  -1.2268  -1.0597  -0.6193   0.6673   0.7793   1.1168   1.2212
     1.2696   1.3743   1.4512   1.4996   1.5802   1.8643

          k = 0.1667-0.4811 0.0000 ( 59291 PWs)   bands (ev):

   -72.7600 -72.7520 -44.2824 -44.2024 -44.2003 -44.1924 -44.1336 -44.1256
   -21.2364 -21.0124 -20.8341 -20.2731 -19.9127 -19.5731 -19.4266 -19.2833
   -19.1202 -18.8814 -18.7710 -18.6372 -18.2692 -18.1756 -18.0265 -17.8283
   -12.4615 -12.2261 -12.1516 -12.0074 -11.7913 -11.7634 -11.6562 -11.0480
   -11.0015 -10.7339 -10.6218  -9.9716  -9.7986  -9.4412  -9.2179  -8.8382
    -8.7320  -8.6605  -8.4910  -8.4753  -8.2667  -8.2564  -8.1709  -8.1511
    -7.8024  -7.7279  -7.6022  -7.5728  -7.4962  -7.2729  -7.1713  -6.9908
    -6.7289  -6.5126  -6.3154  -6.2623  -6.0936  -6.0348  -5.8893  -5.8681
    -5.5529  -5.5119  -5.3794  -5.1367  -4.5927  -4.4342  -4.2054  -3.8842
    -2.7299  -1.9412  -1.9221  -1.7198  -1.5839  -1.4432  -1.4099  -1.3735
    -1.2715  -1.2263  -1.0599  -0.6230   0.5980   0.7839   0.9928   1.1222
     1.1920   1.3333   1.4018   1.7610   1.9185   2.0387

          k = 0.1667-0.0962 0.0000 ( 59226 PWs)   bands (ev):

   -72.7600 -72.7520 -44.2824 -44.2025 -44.2003 -44.1923 -44.1336 -44.1256
   -21.4257 -20.6561 -20.4576 -20.4341 -20.1151 -20.0792 -19.9043 -18.8594
   -18.8216 -18.4965 -18.4759 -18.4531 -18.3699 -18.3675 -18.1804 -18.1644
   -12.6176 -12.6121 -12.5153 -11.6948 -11.6761 -11.5320 -11.5305 -11.0347
   -11.0261 -10.0413 -10.0292  -9.7829  -9.4856  -9.4787  -9.3380  -9.3298
    -9.1488  -9.1440  -9.0696  -8.4339  -8.4240  -8.0492  -8.0094  -8.0043
    -7.9487  -7.8740  -7.7390  -7.6852  -7.3039  -7.1981  -7.0668  -6.9962
    -6.9838  -6.9527  -6.6399  -6.6282  -6.3613  -5.5309  -5.4237  -5.2472
    -5.1697  -4.9661  -4.9266  -4.8549  -4.7287  -4.7162  -4.4689  -4.4284
    -2.7363  -1.9381  -1.9241  -1.7265  -1.5934  -1.4331  -1.4070  -1.3746
    -1.2698  -1.2273  -1.0595  -0.6153   0.7128   0.7619   1.1241   1.1934
     1.2868   1.3259   1.4940   1.5106   1.7985   1.8556

          k =-0.5000-0.8660 0.0000 ( 59292 PWs)   bands (ev):

   -72.7600 -72.7520 -44.2824 -44.2025 -44.2003 -44.1924 -44.1335 -44.1256
   -21.1755 -21.1476 -20.5846 -20.5607 -19.5569 -19.5419 -19.5097 -19.5059
   -19.1044 -19.0864 -18.4419 -18.4361 -18.4125 -18.4107 -17.9039 -17.8837
   -12.1907 -12.1843 -12.1631 -12.1612 -11.9938 -11.9708 -11.4404 -11.4260
   -10.3525 -10.3322 -10.2471 -10.2408 -10.2271 -10.2270  -8.7728  -8.6715
    -8.6596  -8.6509  -8.6444  -8.6413  -7.9815  -7.9748  -7.9585  -7.9575
    -7.9285  -7.9231  -7.9121  -7.8598  -7.5981  -7.5842  -6.7278  -6.7065
    -6.5461  -6.4849  -6.4102  -6.3959  -6.2958  -6.2860  -5.8429  -5.8001
    -5.6560  -5.6402  -4.8750  -4.8681  -4.7972  -4.7826  -4.0202  -3.9655
    -2.7169  -1.9393  -1.9175  -1.7197  -1.5877  -1.4385  -1.4119  -1.3719
    -1.2740  -1.2380  -1.0609  -0.7583   0.7505   0.8982   1.0221   1.2651
     1.4127   1.4638   1.4981   1.5721   1.7612   1.7871

          k =-0.1667 0.2887 0.0000 ( 59267 PWs)   bands (ev):

   -72.7600 -72.7520 -44.2824 -44.2024 -44.2003 -44.1924 -44.1335 -44.1256
   -21.3604 -20.7806 -20.7553 -20.2160 -20.2043 -19.7016 -19.6815 -19.2077
   -18.8244 -18.7925 -18.5606 -18.5566 -18.3075 -18.1897 -18.1701 -17.9533
   -12.5951 -12.3160 -12.3113 -11.9291 -11.9198 -11.7655 -11.3055 -11.2892
   -10.4993 -10.4757 -10.2284 -10.2150  -9.6999  -9.6921  -8.9864  -8.9354
    -8.9311  -8.8776  -8.8599  -8.7007  -8.3002  -8.2117  -8.1234  -7.9379
    -7.9309  -7.5486  -7.5409  -7.4240  -7.3821  -7.3154  -7.3079  -7.0620
    -7.0601  -6.7092  -6.6384  -6.2601  -6.2562  -6.0015  -5.5229  -5.4660
    -5.3858  -5.3037  -5.0298  -5.0181  -4.6431  -4.4706  -4.4362  -4.0952
    -2.7331  -1.9396  -1.9231  -1.7232  -1.5874  -1.4378  -1.4084  -1.3742
    -1.2706  -1.2268  -1.0597  -0.6193   0.6673   0.7793   1.1168   1.2212
     1.2696   1.3743   1.4512   1.4995   1.5802   1.8643

          k = 0.3333 0.0000 0.0000 ( 59267 PWs)   bands (ev):

   -72.7601 -72.7520 -44.2824 -44.2025 -44.2003 -44.1923 -44.1335 -44.1256
   -21.3590 -20.8207 -20.7146 -20.2303 -20.1836 -19.7476 -19.6432 -19.2159
   -18.8408 -18.7567 -18.5844 -18.5382 -18.2984 -18.2309 -18.1477 -17.9503
   -12.5911 -12.3331 -12.2964 -11.9470 -11.9104 -11.7587 -11.3331 -11.2619
   -10.4994 -10.4720 -10.2502 -10.1962  -9.7074  -9.6792  -8.9838  -8.9445
    -8.9191  -8.9124  -8.8269  -8.7047  -8.3077  -8.2827  -8.0487  -7.9362
    -7.9258  -7.5562  -7.5306  -7.4505  -7.3398  -7.3296  -7.2920  -7.0827
    -7.0443  -6.7945  -6.5767  -6.2641  -6.2498  -6.0238  -5.5222  -5.4695
    -5.3406  -5.3049  -5.0748  -4.9819  -4.6323  -4.5223  -4.4127  -4.0904
    -2.7245  -1.9381  -1.9189  -1.7232  -1.5928  -1.4343  -1.4098  -1.3727
    -1.2724  -1.2349  -1.0602  -0.7131   0.7284   0.9385   1.2050   1.2427
     1.2914   1.3766   1.4360   1.4909   1.5848   1.9339

          k =-0.1667-0.4811 0.0000 ( 59291 PWs)   bands (ev):

   -72.7600 -72.7520 -44.2824 -44.2024 -44.2003 -44.1924 -44.1336 -44.1256
   -21.2364 -21.0124 -20.8341 -20.2731 -19.9127 -19.5731 -19.4266 -19.2833
   -19.1202 -18.8814 -18.7710 -18.6371 -18.2692 -18.1756 -18.0265 -17.8283
   -12.4615 -12.2260 -12.1516 -12.0074 -11.7913 -11.7634 -11.6562 -11.0480
   -11.0015 -10.7339 -10.6218  -9.9716  -9.7986  -9.4413  -9.2179  -8.8382
    -8.7320  -8.6605  -8.4910  -8.4753  -8.2666  -8.2564  -8.1710  -8.1511
    -7.8024  -7.7280  -7.6022  -7.5728  -7.4962  -7.2729  -7.1713  -6.9908
    -6.7289  -6.5126  -6.3154  -6.2624  -6.0936  -6.0347  -5.8892  -5.8680
    -5.5530  -5.5119  -5.3794  -5.1367  -4.5927  -4.4342  -4.2054  -3.8842
    -2.7299  -1.9412  -1.9221  -1.7198  -1.5839  -1.4432  -1.4099  -1.3735
    -1.2715  -1.2263  -1.0599  -0.6230   0.5980   0.7839   0.9928   1.1222
     1.1920   1.3333   1.4018   1.7610   1.9185   2.0387

          k = 0.5000-0.0962 0.0000 ( 59291 PWs)   bands (ev):

   -72.7601 -72.7520 -44.2824 -44.2025 -44.2003 -44.1924 -44.1335 -44.1256
   -21.2272 -21.0380 -20.8177 -20.2671 -19.9108 -19.5847 -19.4420 -19.2669
   -19.1254 -18.8879 -18.7342 -18.6544 -18.2467 -18.2140 -18.0177 -17.8266
   -12.4547 -12.2293 -12.1457 -12.0230 -11.8146 -11.7322 -11.6627 -11.0495
   -10.9933 -10.7285 -10.6303  -9.9638  -9.8001  -9.4440  -9.2158  -8.8141
    -8.7354  -8.6543  -8.5498  -8.5051  -8.2599  -8.2081  -8.1971  -8.1282
    -7.7883  -7.7295  -7.6002  -7.5762  -7.4789  -7.2781  -7.1737  -6.9836
    -6.7302  -6.5538  -6.3440  -6.2598  -6.0578  -6.0321  -5.8874  -5.8781
    -5.5570  -5.5232  -5.3062  -5.1690  -4.5612  -4.4888  -4.1949  -3.8811
    -2.7169  -1.9393  -1.9175  -1.7197  -1.5892  -1.4385  -1.4119  -1.3718
    -1.2741  -1.2380  -1.0609  -0.7580   0.7208   0.8976   1.0421   1.1948
     1.2162   1.4091   1.5371   1.7731   1.8390   1.9265

          k =-0.3333-0.3849 0.0000 ( 59291 PWs)   bands (ev):

   -72.7600 -72.7520 -44.2824 -44.2025 -44.2003 -44.1924 -44.1335 -44.1256
   -21.2306 -21.0290 -20.8239 -20.2656 -19.9199 -19.5748 -19.4252 -19.2810
   -19.1347 -18.8804 -18.7390 -18.6534 -18.2525 -18.2057 -18.0182 -17.8273
   -12.4590 -12.2199 -12.1542 -12.0168 -11.7938 -11.7588 -11.6601 -11.0494
   -10.9927 -10.7266 -10.6319  -9.9657  -9.8003  -9.4426  -9.2200  -8.8230
    -8.7296  -8.6594  -8.5236  -8.4962  -8.2646  -8.2254  -8.1736  -8.1567
    -7.7888  -7.7253  -7.6141  -7.5631  -7.4736  -7.2782  -7.1763  -7.0129
    -6.7234  -6.5189  -6.3070  -6.2675  -6.0950  -6.0287  -5.9013  -5.8873
    -5.5562  -5.5055  -5.3114  -5.1710  -4.5655  -4.4816  -4.1943  -3.8821
    -2.7213  -1.9400  -1.9197  -1.7198  -1.5864  -1.4402  -1.4112  -1.3725
    -1.2732  -1.2339  -1.0605  -0.7168   0.6921   0.8622   1.0054   1.1321
     1.2736   1.3924   1.4679   1.7879   1.8819   1.9184

          k = 0.5000 0.0962 0.0000 ( 59291 PWs)   bands (ev):

   -72.7601 -72.7520 -44.2824 -44.2025 -44.2003 -44.1924 -44.1335 -44.1256
   -21.2272 -21.0380 -20.8177 -20.2671 -19.9108 -19.5847 -19.4420 -19.2669
   -19.1254 -18.8879 -18.7342 -18.6545 -18.2467 -18.2140 -18.0177 -17.8266
   -12.4547 -12.2293 -12.1457 -12.0230 -11.8146 -11.7322 -11.6627 -11.0495
   -10.9933 -10.7285 -10.6304  -9.9639  -9.8001  -9.4440  -9.2157  -8.8141
    -8.7354  -8.6544  -8.5498  -8.5051  -8.2599  -8.2081  -8.1971  -8.1281
    -7.7884  -7.7295  -7.6002  -7.5762  -7.4789  -7.2782  -7.1736  -6.9836
    -6.7301  -6.5538  -6.3440  -6.2597  -6.0578  -6.0320  -5.8875  -5.8781
    -5.5570  -5.5233  -5.3062  -5.1690  -4.5612  -4.4888  -4.1949  -3.8811
    -2.7169  -1.9393  -1.9175  -1.7197  -1.5892  -1.4385  -1.4119  -1.3718
    -1.2741  -1.2380  -1.0609  -0.7580   0.7208   0.8976   1.0421   1.1948
     1.2162   1.4091   1.5371   1.7731   1.8391   1.9265

          k =-0.3333 0.3849 0.0000 ( 59291 PWs)   bands (ev):

   -72.7600 -72.7520 -44.2824 -44.2025 -44.2003 -44.1924 -44.1335 -44.1256
   -21.2306 -21.0290 -20.8239 -20.2656 -19.9199 -19.5748 -19.4252 -19.2810
   -19.1347 -18.8804 -18.7390 -18.6534 -18.2525 -18.2057 -18.0182 -17.8273
   -12.4590 -12.2199 -12.1542 -12.0168 -11.7939 -11.7589 -11.6601 -11.0494
   -10.9927 -10.7266 -10.6319  -9.9657  -9.8002  -9.4426  -9.2200  -8.8230
    -8.7296  -8.6593  -8.5236  -8.4962  -8.2646  -8.2254  -8.1735  -8.1567
    -7.7887  -7.7253  -7.6141  -7.5631  -7.4736  -7.2781  -7.1763  -7.0129
    -6.7234  -6.5189  -6.3070  -6.2675  -6.0950  -6.0288  -5.9013  -5.8873
    -5.5561  -5.5055  -5.3114  -5.1710  -4.5655  -4.4816  -4.1943  -3.8821
    -2.7213  -1.9400  -1.9197  -1.7198  -1.5864  -1.4403  -1.4112  -1.3725
    -1.2732  -1.2339  -1.0605  -0.7168   0.6921   0.8622   1.0054   1.1321
     1.2736   1.3924   1.4679   1.7879   1.8820   1.9185

          k =-0.1667-0.0962 0.0000 ( 59226 PWs)   bands (ev):

   -72.7600 -72.7520 -44.2824 -44.2025 -44.2003 -44.1923 -44.1336 -44.1256
   -21.4257 -20.6561 -20.4576 -20.4341 -20.1151 -20.0792 -19.9043 -18.8594
   -18.8216 -18.4965 -18.4759 -18.4531 -18.3700 -18.3676 -18.1804 -18.1644
   -12.6176 -12.6121 -12.5153 -11.6948 -11.6761 -11.5320 -11.5305 -11.0347
   -11.0261 -10.0414 -10.0292  -9.7828  -9.4855  -9.4786  -9.3380  -9.3299
    -9.1488  -9.1440  -9.0696  -8.4339  -8.4240  -8.0492  -8.0094  -8.0042
    -7.9487  -7.8741  -7.7390  -7.6852  -7.3039  -7.1981  -7.0669  -6.9962
    -6.9837  -6.9527  -6.6398  -6.6282  -6.3614  -5.5309  -5.4237  -5.2471
    -5.1698  -4.9660  -4.9266  -4.8549  -4.7287  -4.7162  -4.4690  -4.4284
    -2.7363  -1.9381  -1.9241  -1.7265  -1.5934  -1.4330  -1.4070  -1.3746
    -1.2698  -1.2273  -1.0595  -0.6153   0.7128   0.7619   1.1241   1.1934
     1.2868   1.3260   1.4940   1.5107   1.7984   1.8560

          k =-0.0000-0.1925 0.0000 ( 59226 PWs)   bands (ev):

   -72.7600 -72.7520 -44.2824 -44.2024 -44.2003 -44.1924 -44.1335 -44.1256
   -21.4262 -20.6398 -20.4701 -20.4516 -20.0920 -20.0781 -19.9148 -18.8430
   -18.8251 -18.5555 -18.4652 -18.4512 -18.3486 -18.3402 -18.1853 -18.1744
   -12.6324 -12.5969 -12.5157 -11.6927 -11.6817 -11.5447 -11.5091 -11.0363
   -11.0307 -10.0355 -10.0354  -9.7824  -9.4940  -9.4663  -9.3371  -9.3367
    -9.1467  -9.1440  -9.0711  -8.4293  -8.4271  -8.0089  -8.0030  -7.9977
    -7.9510  -7.8803  -7.7908  -7.7195  -7.2322  -7.2052  -7.0628  -6.9946
    -6.9899  -6.9762  -6.6362  -6.6302  -6.3628  -5.4900  -5.4406  -5.2482
    -5.1687  -5.0609  -4.8890  -4.8724  -4.6861  -4.6834  -4.4695  -4.4517
    -2.7405  -1.9390  -1.9261  -1.7264  -1.5908  -1.4348  -1.4062  -1.3754
    -1.2689  -1.2233  -1.0593  -0.5601   0.6330   0.7338   1.0761   1.1826
     1.2344   1.3739   1.4571   1.5488   1.7370   1.9034

          k = 0.5000-0.8660 0.0000 ( 59292 PWs)   bands (ev):

   -72.7600 -72.7520 -44.2824 -44.2025 -44.2003 -44.1924 -44.1335 -44.1256
   -21.1755 -21.1476 -20.5846 -20.5607 -19.5569 -19.5419 -19.5097 -19.5059
   -19.1044 -19.0864 -18.4419 -18.4361 -18.4125 -18.4107 -17.9039 -17.8837
   -12.1907 -12.1843 -12.1632 -12.1612 -11.9938 -11.9707 -11.4403 -11.4260
   -10.3526 -10.3322 -10.2471 -10.2409 -10.2271 -10.2270  -8.7728  -8.6715
    -8.6596  -8.6509  -8.6444  -8.6414  -7.9815  -7.9748  -7.9585  -7.9575
    -7.9285  -7.9231  -7.9122  -7.8598  -7.5982  -7.5843  -6.7278  -6.7064
    -6.5461  -6.4849  -6.4102  -6.3959  -6.2957  -6.2859  -5.8429  -5.8001
    -5.6561  -5.6402  -4.8749  -4.8681  -4.7972  -4.7826  -4.0203  -3.9655
    -2.7169  -1.9393  -1.9175  -1.7197  -1.5877  -1.4385  -1.4119  -1.3719
    -1.2740  -1.2380  -1.0609  -0.7583   0.7505   0.8982   1.0222   1.2651
     1.4127   1.4638   1.4980   1.5721   1.7612   1.7872

          k =-1.0000 0.0000 0.0000 ( 59292 PWs)   bands (ev):

   -72.7601 -72.7520 -44.2824 -44.2025 -44.2003 -44.1924 -44.1336 -44.1256
   -21.2103 -21.1031 -20.5894 -20.5722 -19.5512 -19.5438 -19.5107 -19.4889
   -19.1369 -19.0568 -18.5450 -18.4057 -18.4008 -18.3545 -17.9022 -17.8910
   -12.2627 -12.1760 -12.1368 -12.1124 -11.9885 -11.9767 -11.4746 -11.3973
   -10.3657 -10.3631 -10.2348 -10.2301 -10.2219 -10.2190  -8.8231  -8.7170
    -8.6578  -8.6254  -8.5977  -8.5743  -8.0029  -7.9855  -7.9680  -7.9650
    -7.9445  -7.9040  -7.8970  -7.8853  -7.6395  -7.5496  -6.7160  -6.7093
    -6.5185  -6.4862  -6.4085  -6.3711  -6.3295  -6.2607  -5.8835  -5.7688
    -5.6894  -5.6071  -5.0486  -4.8154  -4.7637  -4.7118  -4.0047  -3.9878
    -2.7342  -1.9415  -1.9224  -1.7198  -1.5826  -1.4443  -1.4093  -1.3740
    -1.2706  -1.2228  -1.0597  -0.5689   0.5605   0.7360   1.0001   1.0620
     1.3409   1.4127   1.5351   1.5391   1.5681   1.8990

 ------ SPIN DOWN ----------


          k = 0.1667 0.2887 0.0000 ( 59267 PWs)   bands (ev):

   -68.5660 -68.5567 -40.1814 -40.0870 -40.0653 -40.0555 -39.9315 -39.9219
   -21.3538 -20.7729 -20.7509 -20.2095 -20.1987 -19.6943 -19.6774 -19.2016
   -18.8157 -18.7880 -18.5551 -18.5514 -18.3005 -18.1842 -18.1664 -17.9479
   -12.5897 -12.3104 -12.3061 -11.9242 -11.9161 -11.7615 -11.2995 -11.2858
   -10.4943 -10.4705 -10.2222 -10.2115  -9.6943  -9.6883  -8.9465  -8.9299
    -8.9262  -8.8721  -8.8570  -8.6967  -8.2966  -8.1690  -8.1048  -7.9338
    -7.9274  -7.5426  -7.5365  -7.3880  -7.3589  -7.3111  -7.3049  -7.0583
    -7.0565  -6.6745  -6.6243  -6.2559  -6.2527  -5.9723  -5.5184  -5.4207
    -5.3659  -5.3000  -5.0072  -4.9984  -4.6132  -4.4503  -4.4228  -4.0743
    -1.2846   0.4933   0.6500   0.9313   1.0278   1.1682   1.2289   1.3087
     1.3913   1.4488   1.4761   1.6655   1.7007   1.7737   1.9607   2.0818
     2.1392   2.1528   2.2106   2.2725   2.3807   2.4142

          k = 0.1667-0.4811 0.0000 ( 59291 PWs)   bands (ev):

   -68.5660 -68.5567 -40.1814 -40.0870 -40.0653 -40.0556 -39.9315 -39.9219
   -21.2289 -21.0075 -20.8280 -20.2668 -19.9069 -19.5671 -19.4206 -19.2774
   -19.1142 -18.8762 -18.7631 -18.6329 -18.2616 -18.1722 -18.0211 -17.8227
   -12.4559 -12.2205 -12.1470 -12.0034 -11.7863 -11.7594 -11.6520 -11.0430
   -10.9961 -10.7281 -10.6180  -9.9661  -9.7942  -9.4364  -9.2134  -8.7885
    -8.7275  -8.6555  -8.4872  -8.4569  -8.2623  -8.2266  -8.1662  -8.1480
    -7.7977  -7.7241  -7.5977  -7.5699  -7.4631  -7.2685  -7.1675  -6.9624
    -6.7238  -6.4864  -6.2833  -6.2585  -6.0704  -6.0301  -5.8852  -5.8418
    -5.5494  -5.4902  -5.3371  -5.1240  -4.5592  -4.4239  -4.1849  -3.8636
    -1.2738   0.4883   0.6419   0.8563   0.8941   1.1089   1.1813   1.3374
     1.4330   1.4689   1.5807   1.7293   1.7676   1.8701   1.9888   2.0979
     2.1312   2.1690   2.2320   2.2770   2.3903   2.4504

          k = 0.1667-0.0962 0.0000 ( 59226 PWs)   bands (ev):

   -68.5660 -68.5567 -40.1814 -40.0871 -40.0653 -40.0555 -39.9315 -39.9219
   -21.4192 -20.6486 -20.4523 -20.4290 -20.1076 -20.0739 -19.8997 -18.8515
   -18.8158 -18.4894 -18.4700 -18.4481 -18.3643 -18.3622 -18.1759 -18.1596
   -12.6120 -12.6069 -12.5104 -11.6898 -11.6726 -11.5272 -11.5257 -11.0299
   -11.0220 -10.0359 -10.0247  -9.7778  -9.4804  -9.4742  -9.3327  -9.3255
    -9.1443  -9.1399  -9.0323  -8.4284  -8.4192  -8.0089  -8.0007  -7.9982
    -7.9443  -7.8705  -7.7126  -7.6670  -7.2592  -7.1794  -7.0627  -6.9921
    -6.9808  -6.9378  -6.6358  -6.6247  -6.3577  -5.4825  -5.4034  -5.2431
    -5.1658  -4.9285  -4.8989  -4.8394  -4.7078  -4.6992  -4.4484  -4.4130
    -1.2953   0.5001   0.6599   0.8562   1.0690   1.1333   1.1744   1.3385
     1.4139   1.4771   1.6514   1.6865   1.7604   1.8342   1.9138   2.0037
     2.0670   2.1576   2.2077   2.2250   2.3583   2.4332

          k =-0.5000-0.8660 0.0000 ( 59292 PWs)   bands (ev):

   -68.5660 -68.5567 -40.1814 -40.0871 -40.0653 -40.0556 -39.9315 -39.9219
   -21.1668 -21.1431 -20.5788 -20.5553 -19.5488 -19.5352 -19.5046 -19.5006
   -19.0974 -19.0827 -18.4338 -18.4282 -18.4091 -18.4070 -17.8987 -17.8782
   -12.1831 -12.1771 -12.1603 -12.1581 -11.9886 -11.9677 -11.4346 -11.4226
   -10.3460 -10.3279 -10.2413 -10.2364 -10.2233 -10.2229  -8.7162  -8.6617
    -8.6540  -8.6415  -8.6389  -8.6349  -7.9757  -7.9703  -7.9545  -7.9541
    -7.9237  -7.9140  -7.8888  -7.8402  -7.5936  -7.5820  -6.7224  -6.7031
    -6.4886  -6.4509  -6.3918  -6.3791  -6.2910  -6.2826  -5.8149  -5.7853
    -5.6507  -5.6377  -4.8386  -4.8324  -4.7825  -4.7740  -3.9955  -3.9497
    -1.2487   0.2403   0.6516   0.8920   1.0148   1.1866   1.2711   1.3432
     1.4187   1.4768   1.5921   1.7371   1.8045   1.9176   1.9487   2.0218
     2.0883   2.1778   2.1950   2.2487   2.4408   2.4723

          k =-0.1667 0.2887 0.0000 ( 59267 PWs)   bands (ev):

   -68.5660 -68.5567 -40.1814 -40.0870 -40.0653 -40.0555 -39.9315 -39.9219
   -21.3538 -20.7729 -20.7509 -20.2095 -20.1987 -19.6943 -19.6775 -19.2016
   -18.8156 -18.7880 -18.5551 -18.5514 -18.3005 -18.1842 -18.1664 -17.9479
   -12.5897 -12.3105 -12.3061 -11.9242 -11.9161 -11.7615 -11.2994 -11.2858
   -10.4943 -10.4705 -10.2222 -10.2116  -9.6943  -9.6883  -8.9465  -8.9299
    -8.9261  -8.8721  -8.8571  -8.6966  -8.2967  -8.1690  -8.1048  -7.9338
    -7.9274  -7.5426  -7.5365  -7.3880  -7.3589  -7.3110  -7.3049  -7.0583
    -7.0565  -6.6744  -6.6243  -6.2559  -6.2527  -5.9723  -5.5185  -5.4208
    -5.3660  -5.2999  -5.0072  -4.9984  -4.6133  -4.4503  -4.4228  -4.0743
    -1.2846   0.4933   0.6500   0.9313   1.0278   1.1682   1.2289   1.3087
     1.3913   1.4488   1.4761   1.6655   1.7007   1.7737   1.9607   2.0819
     2.1391   2.1529   2.2107   2.2725   2.3807   2.4143

          k = 0.3333 0.0000 0.0000 ( 59267 PWs)   bands (ev):

   -68.5660 -68.5567 -40.1814 -40.0871 -40.0653 -40.0555 -39.9315 -39.9219
   -21.3524 -20.8121 -20.7111 -20.2243 -20.1780 -19.7392 -19.6397 -19.2093
   -18.8324 -18.7534 -18.5789 -18.5322 -18.2920 -18.2240 -18.1443 -17.9450
   -12.5860 -12.3265 -12.2922 -11.9419 -11.9064 -11.7554 -11.3262 -11.2592
   -10.4944 -10.4672 -10.2435 -10.1931  -9.7018  -9.6759  -8.9456  -8.9383
    -8.9127  -8.9079  -8.8248  -8.7002  -8.3027  -8.2321  -8.0401  -7.9325
    -7.9223  -7.5501  -7.5268  -7.4130  -7.3279  -7.3194  -7.2893  -7.0784
    -7.0410  -6.7473  -6.5679  -6.2599  -6.2465  -5.9887  -5.5179  -5.4328
    -5.3239  -5.3010  -5.0467  -4.9647  -4.6023  -4.4995  -4.3980  -4.0706
    -1.2686   0.3216   0.7037   0.8381   1.0969   1.1680   1.2352   1.3773
     1.3871   1.4720   1.4920   1.7608   1.7918   1.9050   1.9303   2.0553
     2.0923   2.1714   2.2377   2.3047   2.3652   2.4125

          k =-0.1667-0.4811 0.0000 ( 59291 PWs)   bands (ev):

   -68.5660 -68.5567 -40.1814 -40.0870 -40.0653 -40.0556 -39.9315 -39.9219
   -21.2289 -21.0075 -20.8280 -20.2668 -19.9069 -19.5671 -19.4206 -19.2774
   -19.1142 -18.8762 -18.7631 -18.6329 -18.2616 -18.1722 -18.0211 -17.8227
   -12.4559 -12.2205 -12.1470 -12.0034 -11.7863 -11.7594 -11.6520 -11.0430
   -10.9961 -10.7281 -10.6180  -9.9661  -9.7942  -9.4365  -9.2134  -8.7885
    -8.7274  -8.6555  -8.4872  -8.4569  -8.2623  -8.2266  -8.1663  -8.1481
    -7.7977  -7.7242  -7.5977  -7.5699  -7.4631  -7.2684  -7.1675  -6.9624
    -6.7239  -6.4864  -6.2833  -6.2585  -6.0704  -6.0301  -5.8852  -5.8417
    -5.5494  -5.4902  -5.3371  -5.1240  -4.5591  -4.4239  -4.1849  -3.8636
    -1.2738   0.4883   0.6419   0.8563   0.8941   1.1089   1.1813   1.3374
     1.4330   1.4689   1.5807   1.7292   1.7676   1.8701   1.9885   2.0978
     2.1312   2.1689   2.2319   2.2766   2.3874   2.4405

          k = 0.5000-0.0962 0.0000 ( 59291 PWs)   bands (ev):

   -68.5660 -68.5567 -40.1814 -40.0871 -40.0653 -40.0555 -39.9315 -39.9219
   -21.2204 -21.0310 -20.8129 -20.2613 -19.9049 -19.5778 -19.4349 -19.2623
   -19.1191 -18.8824 -18.7287 -18.6489 -18.2397 -18.2088 -18.0130 -17.8211
   -12.4496 -12.2236 -12.1416 -12.0176 -11.8088 -11.7298 -11.6577 -11.0445
   -10.9886 -10.7231 -10.6259  -9.9591  -9.7955  -9.4389  -9.2115  -8.7698
    -8.7302  -8.6499  -8.5137  -8.4992  -8.2565  -8.1939  -8.1892  -8.1258
    -7.7847  -7.7256  -7.5957  -7.5732  -7.4508  -7.2732  -7.1696  -6.9571
    -6.7249  -6.5124  -6.3087  -6.2562  -6.0430  -6.0277  -5.8831  -5.8499
    -5.5531  -5.4994  -5.2806  -5.1492  -4.5287  -4.4725  -4.1764  -3.8612
    -1.2487   0.2427   0.6511   0.8613   0.9408   1.1400   1.2204   1.3062
     1.4359   1.6217   1.6617   1.7434   1.8555   1.9907   2.0103   2.0504
     2.0959   2.1222   2.2674   2.2710   2.4074   2.4482

          k =-0.3333-0.3849 0.0000 ( 59291 PWs)   bands (ev):

   -68.5660 -68.5567 -40.1814 -40.0871 -40.0653 -40.0556 -39.9315 -39.9219
   -21.2235 -21.0227 -20.8186 -20.2599 -19.9134 -19.5688 -19.4192 -19.2753
   -19.1279 -18.8754 -18.7329 -18.6482 -18.2453 -18.2008 -18.0135 -17.8218
   -12.4537 -12.2148 -12.1495 -12.0118 -11.7892 -11.7550 -11.6553 -11.0444
   -10.9882 -10.7214 -10.6272  -9.9607  -9.7957  -9.4378  -9.2154  -8.7764
    -8.7252  -8.6542  -8.4942  -8.4905  -8.2607  -8.2044  -8.1682  -8.1537
    -7.7852  -7.7217  -7.6092  -7.5606  -7.4471  -7.2732  -7.1720  -6.9774
    -6.7188  -6.4907  -6.2786  -6.2627  -6.0694  -6.0246  -5.8838  -5.8678
    -5.5524  -5.4859  -5.2847  -5.1508  -4.5335  -4.4653  -4.1760  -3.8621
    -1.2574   0.3101   0.6343   0.8711   0.9505   1.1333   1.1909   1.3267
     1.4567   1.5214   1.6332   1.7708   1.8927   1.9324   1.9947   2.0179
     2.1039   2.1435   2.2111   2.2839   2.3994   2.4449

          k = 0.5000 0.0962 0.0000 ( 59291 PWs)   bands (ev):

   -68.5660 -68.5567 -40.1814 -40.0871 -40.0653 -40.0555 -39.9315 -39.9219
   -21.2204 -21.0310 -20.8129 -20.2613 -19.9049 -19.5778 -19.4349 -19.2623
   -19.1191 -18.8824 -18.7287 -18.6489 -18.2397 -18.2088 -18.0130 -17.8211
   -12.4496 -12.2236 -12.1416 -12.0176 -11.8088 -11.7298 -11.6577 -11.0445
   -10.9886 -10.7231 -10.6259  -9.9591  -9.7955  -9.4389  -9.2115  -8.7698
    -8.7302  -8.6499  -8.5137  -8.4992  -8.2565  -8.1939  -8.1892  -8.1257
    -7.7848  -7.7255  -7.5958  -7.5733  -7.4508  -7.2733  -7.1696  -6.9571
    -6.7249  -6.5124  -6.3087  -6.2561  -6.0430  -6.0277  -5.8832  -5.8499
    -5.5532  -5.4995  -5.2806  -5.1492  -4.5287  -4.4725  -4.1764  -3.8612
    -1.2487   0.2427   0.6512   0.8613   0.9408   1.1400   1.2204   1.3062
     1.4359   1.6217   1.6617   1.7435   1.8556   1.9907   2.0104   2.0503
     2.0959   2.1222   2.2680   2.2709   2.4056   2.4482

          k =-0.3333 0.3849 0.0000 ( 59291 PWs)   bands (ev):

   -68.5660 -68.5567 -40.1814 -40.0871 -40.0653 -40.0556 -39.9315 -39.9219
   -21.2235 -21.0227 -20.8186 -20.2599 -19.9134 -19.5688 -19.4192 -19.2753
   -19.1279 -18.8754 -18.7329 -18.6482 -18.2453 -18.2008 -18.0135 -17.8218
   -12.4536 -12.2148 -12.1495 -12.0118 -11.7892 -11.7550 -11.6553 -11.0444
   -10.9881 -10.7214 -10.6272  -9.9607  -9.7956  -9.4378  -9.2154  -8.7764
    -8.7253  -8.6541  -8.4942  -8.4905  -8.2608  -8.2044  -8.1682  -8.1537
    -7.7851  -7.7217  -7.6092  -7.5606  -7.4471  -7.2732  -7.1721  -6.9774
    -6.7189  -6.4907  -6.2786  -6.2628  -6.0694  -6.0247  -5.8837  -5.8678
    -5.5523  -5.4859  -5.2848  -5.1508  -4.5336  -4.4653  -4.1760  -3.8620
    -1.2574   0.3101   0.6343   0.8711   0.9505   1.1333   1.1909   1.3267
     1.4567   1.5214   1.6332   1.7708   1.8927   1.9324   1.9946   2.0178
     2.1038   2.1436   2.2109   2.2836   2.3936   2.4415

          k =-0.1667-0.0962 0.0000 ( 59226 PWs)   bands (ev):

   -68.5660 -68.5567 -40.1814 -40.0871 -40.0653 -40.0555 -39.9315 -39.9219
   -21.4192 -20.6486 -20.4523 -20.4290 -20.1076 -20.0739 -19.8997 -18.8515
   -18.8158 -18.4894 -18.4700 -18.4481 -18.3643 -18.3622 -18.1759 -18.1596
   -12.6120 -12.6069 -12.5104 -11.6898 -11.6726 -11.5272 -11.5257 -11.0299
   -11.0220 -10.0359 -10.0248  -9.7778  -9.4803  -9.4742  -9.3327  -9.3255
    -9.1443  -9.1400  -9.0323  -8.4284  -8.4192  -8.0089  -8.0007  -7.9982
    -7.9442  -7.8706  -7.7126  -7.6670  -7.2592  -7.1794  -7.0628  -6.9921
    -6.9808  -6.9378  -6.6358  -6.6247  -6.3578  -5.4825  -5.4034  -5.2430
    -5.1659  -4.9285  -4.8989  -4.8395  -4.7078  -4.6992  -4.4484  -4.4130
    -1.2953   0.5001   0.6598   0.8562   1.0690   1.1333   1.1744   1.3385
     1.4140   1.4771   1.6513   1.6865   1.7603   1.8341   1.9138   2.0038
     2.0670   2.1577   2.2076   2.2249   2.3582   2.4332

          k =-0.0000-0.1925 0.0000 ( 59226 PWs)   bands (ev):

   -68.5660 -68.5567 -40.1814 -40.0870 -40.0653 -40.0555 -39.9315 -39.9219
   -21.4196 -20.6336 -20.4627 -20.4461 -20.0861 -20.0731 -19.9093 -18.8356
   -18.8196 -18.5462 -18.4589 -18.4459 -18.3426 -18.3386 -18.1797 -18.1695
   -12.6260 -12.5928 -12.5105 -11.6877 -11.6776 -11.5395 -11.5058 -11.0310
   -11.0263 -10.0307 -10.0303  -9.7773  -9.4887  -9.4622  -9.3325  -9.3314
    -9.1424  -9.1398  -9.0333  -8.4246  -8.4218  -8.0052  -7.9946  -7.9683
    -7.9453  -7.8760  -7.7445  -7.6979  -7.2070  -7.1836  -7.0590  -6.9908
    -6.9859  -6.9565  -6.6323  -6.6267  -6.3590  -5.4504  -5.4162  -5.2441
    -5.1648  -5.0120  -4.8662  -4.8494  -4.6791  -4.6672  -4.4480  -4.4320
    -1.3028   0.5999   0.6673   0.9143   1.0158   1.0801   1.2056   1.3133
     1.3363   1.5075   1.5635   1.6175   1.7732   1.8339   1.8554   2.0776
     2.0959   2.1676   2.2004   2.2311   2.2950   2.4234

          k = 0.5000-0.8660 0.0000 ( 59292 PWs)   bands (ev):

   -68.5660 -68.5567 -40.1814 -40.0871 -40.0653 -40.0556 -39.9315 -39.9219
   -21.1668 -21.1431 -20.5788 -20.5553 -19.5488 -19.5352 -19.5046 -19.5006
   -19.0973 -19.0828 -18.4337 -18.4282 -18.4091 -18.4070 -17.8987 -17.8782
   -12.1830 -12.1771 -12.1603 -12.1581 -11.9886 -11.9677 -11.4345 -11.4226
   -10.3460 -10.3279 -10.2413 -10.2364 -10.2233 -10.2229  -8.7162  -8.6617
    -8.6540  -8.6415  -8.6389  -8.6349  -7.9757  -7.9702  -7.9544  -7.9541
    -7.9238  -7.9141  -7.8888  -7.8402  -7.5937  -7.5820  -6.7223  -6.7030
    -6.4886  -6.4509  -6.3918  -6.3791  -6.2908  -6.2825  -5.8149  -5.7853
    -5.6508  -5.6378  -4.8385  -4.8324  -4.7825  -4.7740  -3.9955  -3.9497
    -1.2487   0.2403   0.6516   0.8920   1.0148   1.1866   1.2711   1.3433
     1.4187   1.4767   1.5921   1.7370   1.8046   1.9176   1.9486   2.0217
     2.0882   2.1777   2.1952   2.2487   2.4431   2.4711

          k =-1.0000 0.0000 0.0000 ( 59292 PWs)   bands (ev):

   -68.5660 -68.5567 -40.1814 -40.0871 -40.0653 -40.0555 -39.9315 -39.9219
   -21.2014 -21.0996 -20.5823 -20.5668 -19.5449 -19.5379 -19.5040 -19.4842
   -19.1291 -19.0534 -18.5349 -18.3998 -18.3945 -18.3535 -17.8961 -17.8859
   -12.2527 -12.1709 -12.1338 -12.1110 -11.9842 -11.9727 -11.4673 -11.3946
   -10.3579 -10.3567 -10.2302 -10.2257 -10.2182 -10.2161  -8.7653  -8.7097
    -8.6534  -8.6221  -8.5963  -8.5659  -7.9945  -7.9802  -7.9638  -7.9601
    -7.9101  -7.9002  -7.8897  -7.8632  -7.6341  -7.5476  -6.7118  -6.7055
    -6.4762  -6.4529  -6.3871  -6.3567  -6.3235  -6.2574  -5.8534  -5.7527
    -5.6835  -5.6052  -4.9914  -4.7889  -4.7506  -4.7089  -3.9831  -3.9676
    -1.2816   0.6269   0.6667   0.8685   0.8694   1.0864   1.3228   1.3458
     1.3586   1.4088   1.5172   1.5875   1.7364   1.7719   1.9175   2.0486
     2.0643   2.2167   2.2640   2.2740   2.4531   2.5130

     the Fermi energy is    -1.0154 ev

!    total energy              =   -1133.82025890 Ry

     total all-electron energy =     -6753.495962 Ry
     estimated scf accuracy    <       0.00000003 Ry
     smearing contrib. (-TS)   =      -0.00000000 Ry
     internal energy E=F+TS    =   -1133.82025890 Ry

     The total energy is F=E-TS. E is the sum of the following terms:
     one-electron contribution =   -4052.15804975 Ry
     hartree contribution      =    2053.91161405 Ry
     xc contribution           =    -186.06570013 Ry
     ewald contribution        =    1409.86642005 Ry
     DFT-D3 Dispersion         =      -0.13217021 Ry
     one-center paw contrib.   =    -359.24237291 Ry

     total magnetization       =    10.00 Bohr mag/cell
     absolute magnetization    =    10.01 Bohr mag/cell

     convergence has been achieved in  16 iterations

     Writing output data file ./mytmp/Crdimer0.655.save/
 
     init_run     :     84.34s CPU     89.84s WALL (       1 calls)
     electrons    :   3017.37s CPU   3340.32s WALL (       1 calls)

     Called by init_run:
     wfcinit      :     68.82s CPU     72.84s WALL (       1 calls)
     potinit      :      4.03s CPU      4.27s WALL (       1 calls)
     hinit0       :      3.50s CPU      3.68s WALL (       1 calls)

     Called by electrons:
     c_bands      :   2252.98s CPU   2484.76s WALL (      16 calls)
     sum_band     :    631.67s CPU    701.46s WALL (      16 calls)
     v_of_rho     :     28.65s CPU     31.49s WALL (      17 calls)
     newd         :     87.94s CPU    105.94s WALL (      17 calls)
     PAW_pot      :     10.87s CPU     11.73s WALL (      17 calls)
     mix_rho      :      8.35s CPU      8.75s WALL (      16 calls)

     Called by c_bands:
     init_us_2    :     29.05s CPU     30.17s WALL (     990 calls)
     cegterg      :   2196.17s CPU   2425.92s WALL (     480 calls)

     Called by *egterg:
     cdiaghg      :     23.84s CPU     36.63s WALL (    3201 calls)
     h_psi        :   1531.58s CPU   1718.01s WALL (    3231 calls)
     s_psi        :     86.82s CPU     88.89s WALL (    3231 calls)
     g_psi        :      5.94s CPU      6.17s WALL (    2721 calls)

     Called by h_psi:
     h_psi:calbec :     92.72s CPU     95.91s WALL (    3231 calls)
     vloc_psi     :   1323.41s CPU   1501.75s WALL (    3231 calls)
     add_vuspsi   :     99.27s CPU    103.21s WALL (    3231 calls)

     General routines
     calbec       :    115.58s CPU    119.50s WALL (    3711 calls)
     fft          :     26.09s CPU     30.63s WALL (     419 calls)
     ffts         :      0.74s CPU      0.87s WALL (      66 calls)
     fftw         :   1154.68s CPU   1353.17s WALL (  274376 calls)
     interpolate  :      2.57s CPU      2.83s WALL (      34 calls)
 
     Parallel routines
 
     PWSCF        :  51m44.67s CPU  57m14.83s WALL

 
   This run was terminated on:  20: 7:24  27Mar2021            

=------------------------------------------------------------------------------=
   JOB DONE.
=------------------------------------------------------------------------------=
