
     Program PWSCF v.6.7MaX starts on 27Mar2021 at 17:23:53 

     This program is part of the open-source Quantum ESPRESSO suite
     for quantum simulation of materials; please cite
         "P. Giannozzi et al., J. Phys.:Condens. Matter 21 395502 (2009);
         "P. Giannozzi et al., J. Phys.:Condens. Matter 29 465901 (2017);
         "P. Giannozzi et al., J. Chem. Phys. 152 154105 (2020);
          URL http://www.quantum-espresso.org", 
     in publications or presentations arising from this work. More details at
     http://www.quantum-espresso.org/quote

     Parallel version (MPI), running on    16 processors

     MPI processes distributed on     1 nodes
     R & G space division:  proc/nbgrp/npool/nimage =      16
     Reading input from Crdimer0.675.scf.in

     Current dimensions of program PWSCF are:
     Max number of different atomic species (ntypx) = 10
     Max number of k-points (npk) =  40000
     Max angular momentum in pseudopotentials (lmaxx) =  3
     file N.pbe-n-kjpaw_psl.1.0.0.UPF: wavefunction(s)  2S renormalized
     file Cr.pbe-spn-kjpaw_psl.1.0.0.UPF: wavefunction(s)  3S 3P 3D renormalized
     file Cr.pbe-spn-kjpaw_psl.1.0.0.UPF: wavefunction(s)  3S 3P 3D renormalized

     --------------------------------------------
     Parameters for DFT-D3 Dispersion Correction:
     --------------------------------------------
       Reference C6 values for interpolation: 

         atom   Coordination number   C6
         B          0.000           214.36
         B          0.971           150.74
         B          1.944           106.23
         B          2.913            62.89
         B          4.586            56.06
         N          0.000            50.54
         N          0.994            44.25
         N          2.014            39.35
         N          2.990            31.16
         Cr1        0.000          1381.48
         Cr1        1.827           571.38
         Cr1       10.619           306.69
         Cr2        0.000          1381.48
         Cr2        1.827           571.38
         Cr2       10.619           306.69

       Values used:

         atom   Coordination number  R0_AB[au]  C6      C8
         B          3.335            3.039     62.89   2506.00
         B          3.347            3.039     62.88   2505.71
         B          3.335            3.039     62.89   2506.01
         B          3.336            3.039     62.89   2506.00
         B          3.336            3.039     62.89   2505.98
         B          3.337            3.039     62.89   2505.97
         N          3.134            2.478     31.22    688.70
         N          3.158            2.478     31.21    688.49
         N          3.134            2.478     31.22    688.70
         N          3.134            2.478     31.22    688.70
         N          3.137            2.478     31.22    688.67
         N          3.136            2.478     31.22    688.68
         N          3.136            2.478     31.22    688.68
         N          3.137            2.478     31.22    688.67
         N          3.134            2.478     31.22    688.70
         B          3.349            3.039     62.88   2505.67
         B          3.347            3.039     62.88   2505.71
         B          3.337            3.039     62.89   2505.97
         B          3.336            3.039     62.89   2505.98
         B          3.335            3.039     62.89   2506.00
         B          3.349            3.039     62.88   2505.67
         N          3.136            2.478     31.22    688.68
         B          3.336            3.039     62.89   2505.99
         B          3.353            3.039     62.88   2505.55
         B          3.335            3.039     62.89   2506.00
         N          3.136            2.478     31.22    688.68
         N          3.158            2.478     31.21    688.49
         N          3.136            2.478     31.22    688.68
         N          3.136            2.478     31.22    688.68
         N          3.134            2.478     31.22    688.70
         N          3.134            2.478     31.22    688.70
         B          3.335            3.039     62.89   2506.00
         Cr1        0.708            3.252   1332.90 123011.92
         Cr2        0.708            3.252   1332.90 123011.92

         Molecular C6 ( Ry / a.u.^6 ) =     78608.15


     Subspace diagonalization in iterative solution of the eigenvalue problem:
     one sub-group per band group will be used
     scalapack distributed-memory algorithm (size of sub-group:  4*  4 procs)

 
     Parallelization info
     --------------------
     sticks:   dense  smooth     PW     G-vecs:    dense   smooth      PW
     Min         706     296     80               108834    29636    4252
     Max         707     297     81               108839    29645    4263
     Sum       11311    4741   1285              1741401   474235   68095
 
     Using Slab Decomposition
 


     bravais-lattice index     =            4
     lattice parameter (alat)  =      18.9275  a.u.
     unit-cell volume          =   10553.3021 (a.u.)^3
     number of atoms/cell      =           34
     number of atomic types    =            4
     number of electrons       =       156.00
     number of Kohn-Sham states=           94
     kinetic-energy cutoff     =      48.0000  Ry
     charge density cutoff     =     457.0000  Ry
     scf convergence threshold =      1.0E-07
     mixing beta               =       0.5000
     number of iterations used =            8  plain     mixing
     Exchange-correlation= SLA  PW   PBX  PBC
                           (   1   4   3   4   0   0   0)

     celldm(1)=  18.927497  celldm(2)=   0.000000  celldm(3)=   1.797125
     celldm(4)=   0.000000  celldm(5)=   0.000000  celldm(6)=   0.000000

     crystal axes: (cart. coord. in units of alat)
               a(1) = (   1.000000   0.000000   0.000000 )  
               a(2) = (  -0.500000   0.866025   0.000000 )  
               a(3) = (   0.000000   0.000000   1.797125 )  

     reciprocal axes: (cart. coord. in units 2 pi/alat)
               b(1) = (  1.000000  0.577350  0.000000 )  
               b(2) = (  0.000000  1.154701  0.000000 )  
               b(3) = (  0.000000  0.000000  0.556444 )  


     PseudoPot. # 1 for B  read from file:
     /home/yueyi/q-e-gpu-qe-gpu-6.7/pseudo/B.pbe-n-kjpaw_psl.1.0.0.UPF
     MD5 check sum: d9c678ba5d3b2fd7b74e61139c9288d8
     Pseudo is Projector augmented-wave + core cor, Zval =  3.0
     Generated using "atomic" code by A. Dal Corso  v.5.1.2
     Shape of augmentation charge: PSQ
     Using radial grid of 1059 points,  4 beta functions with: 
                l(1) =   0
                l(2) =   0
                l(3) =   1
                l(4) =   1
     Q(r) pseudized with 0 coefficients 


     PseudoPot. # 2 for N  read from file:
     /home/yueyi/q-e-gpu-qe-gpu-6.7/pseudo/N.pbe-n-kjpaw_psl.1.0.0.UPF
     MD5 check sum: e0e4e94a9c4025c5b51bd7d8793849bd
     Pseudo is Projector augmented-wave + core cor, Zval =  5.0
     Generated using "atomic" code by A. Dal Corso  v.5.1.2
     Shape of augmentation charge: PSQ
     Using radial grid of 1085 points,  4 beta functions with: 
                l(1) =   0
                l(2) =   0
                l(3) =   1
                l(4) =   1
     Q(r) pseudized with 0 coefficients 


     PseudoPot. # 3 for Cr read from file:
     /home/yueyi/q-e-gpu-qe-gpu-6.7/pseudo/Cr.pbe-spn-kjpaw_psl.1.0.0.UPF
     MD5 check sum: 198f1a2427a48552563eee314eba32ba
     Pseudo is Projector augmented-wave + core cor, Zval = 14.0
     Generated using &quot;atomic&quot; code by A. Dal Corso  v.6.3
     Shape of augmentation charge: PSQ
     Using radial grid of 1183 points,  6 beta functions with: 
                l(1) =   0
                l(2) =   0
                l(3) =   1
                l(4) =   1
                l(5) =   2
                l(6) =   2
     Q(r) pseudized with 0 coefficients 


     PseudoPot. # 4 for Cr read from file:
     /home/yueyi/q-e-gpu-qe-gpu-6.7/pseudo/Cr.pbe-spn-kjpaw_psl.1.0.0.UPF
     MD5 check sum: 198f1a2427a48552563eee314eba32ba
     Pseudo is Projector augmented-wave + core cor, Zval = 14.0
     Generated using &quot;atomic&quot; code by A. Dal Corso  v.6.3
     Shape of augmentation charge: PSQ
     Using radial grid of 1183 points,  6 beta functions with: 
                l(1) =   0
                l(2) =   0
                l(3) =   1
                l(4) =   1
                l(5) =   2
                l(6) =   2
     Q(r) pseudized with 0 coefficients 


     atomic species   valence    mass     pseudopotential
        B              3.00    10.81100     B ( 1.00)
        N              5.00    14.00674     N ( 1.00)
        Cr1           14.00    51.99610     Cr( 1.00)
        Cr2           14.00    51.99610     Cr( 1.00)

     Starting magnetic structure 
     atomic species   magnetization
        B            0.000
        N            0.000
        Cr1          1.000
        Cr2          1.000

     No symmetry found



   Cartesian axes

     site n.     atom                  positions (alat units)
         1           B   tau(   1) = (  -0.1250000   0.2165064   0.8985623  )
         2           B   tau(   2) = (   0.3750000   0.6495191   0.8985623  )
         3           B   tau(   3) = (   0.2500000   0.0000000   0.8985623  )
         4           B   tau(   4) = (   0.7500000   0.0000000   0.8985623  )
         5           B   tau(   5) = (   0.1250000   0.2165064   0.8985623  )
         6           B   tau(   6) = (  -0.3750000   0.6495191   0.8985623  )
         7           N   tau(   7) = (   0.7500005   0.2886748   0.8985623  )
         8           N   tau(   8) = (   0.3750005   0.5051812   0.8985623  )
         9           N   tau(   9) = (   0.3750005   0.0721685   0.8985623  )
        10           N   tau(  10) = (   0.6250005   0.0721685   0.8985623  )
        11           N   tau(  11) = (   0.2500005   0.2886748   0.8985623  )
        12           N   tau(  12) = (   0.6250005   0.5051812   0.8985623  )
        13           N   tau(  13) = (   0.0000005   0.2886748   0.8985623  )
        14           N   tau(  14) = (   0.2500005   0.7216875   0.8985623  )
        15           N   tau(  15) = (  -0.2499995   0.7216875   0.8985623  )
        16           B   tau(  16) = (   0.0000000   0.4330127   0.8985623  )
        17           B   tau(  17) = (   0.1250000   0.6495191   0.8985623  )
        18           B   tau(  18) = (  -0.1250000   0.6495191   0.8985623  )
        19           B   tau(  19) = (   0.3750000   0.2165064   0.8985623  )
        20           B   tau(  20) = (   0.6250000   0.2165064   0.8985623  )
        21           B   tau(  21) = (   0.5000000   0.4330127   0.8985623  )
        22           N   tau(  22) = (   0.5000005   0.2886748   0.8985623  )
        23           B   tau(  23) = (  -0.2500000   0.4330127   0.8985623  )
        24           B   tau(  24) = (   0.2500000   0.4330127   0.8985623  )
        25           B   tau(  25) = (   0.5000000   0.0000000   0.8985623  )
        26           N   tau(  26) = (  -0.1249995   0.5051812   0.8985623  )
        27           N   tau(  27) = (   0.1250005   0.5051812   0.8985623  )
        28           N   tau(  28) = (   0.0000005   0.7216875   0.8985623  )
        29           N   tau(  29) = (   0.5000005   0.7216875   0.8985623  )
        30           N   tau(  30) = (   0.1250005   0.0721685   0.8985623  )
        31           N   tau(  31) = (   0.8750005   0.0721685   0.8985623  )
        32           B   tau(  32) = (   0.0000000   0.0000000   0.8985623  )
        33           Cr1 tau(  33) = (   0.1083335   0.5051812   1.2130591  )
        34           Cr2 tau(  34) = (   0.3916668   0.5051812   1.2130591  )

     number of k points=    15  Gaussian smearing, width (Ry)=  0.0000
                       cart. coord. in units 2pi/alat
        k(    1) = (   0.1666667   0.2886751   0.0000000), wk =   0.0740741
        k(    2) = (   0.1666667  -0.4811252   0.0000000), wk =   0.0740741
        k(    3) = (   0.1666667  -0.0962250   0.0000000), wk =   0.0740741
        k(    4) = (  -0.5000000  -0.8660254   0.0000000), wk =   0.0370370
        k(    5) = (  -0.1666667   0.2886751   0.0000000), wk =   0.0740741
        k(    6) = (   0.3333333   0.0000000   0.0000000), wk =   0.0740741
        k(    7) = (  -0.1666667  -0.4811252   0.0000000), wk =   0.0740741
        k(    8) = (   0.5000000  -0.0962250   0.0000000), wk =   0.0740741
        k(    9) = (  -0.3333333  -0.3849002   0.0000000), wk =   0.0740741
        k(   10) = (   0.5000000   0.0962250   0.0000000), wk =   0.0740741
        k(   11) = (  -0.3333333   0.3849002   0.0000000), wk =   0.0740741
        k(   12) = (  -0.1666667  -0.0962250   0.0000000), wk =   0.0740741
        k(   13) = (  -0.0000000  -0.1924501   0.0000000), wk =   0.0740741
        k(   14) = (   0.5000000  -0.8660254   0.0000000), wk =   0.0370370
        k(   15) = (  -1.0000000   0.0000000   0.0000000), wk =   0.0370370

     Dense  grid:  1741401 G-vectors     FFT dimensions: ( 135, 135, 240)

     Smooth grid:   474235 G-vectors     FFT dimensions: (  90,  90, 160)

     Estimated max dynamical RAM per process >     642.21 MB

     Estimated total dynamical RAM >      10.03 GB
     Generating pointlists ...
     new r_m :   0.0595 (alat units)  1.1269 (a.u.) for type    1
     new r_m :   0.0595 (alat units)  1.1269 (a.u.) for type    2
     new r_m :   0.1169 (alat units)  2.2122 (a.u.) for type    3
     new r_m :   0.1169 (alat units)  2.2122 (a.u.) for type    4

     Initial potential from superposition of free atoms

     starting charge  155.99382, renormalised to  156.00000

     negative rho (up, down):  6.646E-03 4.655E-04
     Starting wfcs are  148 randomized atomic wfcs
     Checking if some PAW data can be deallocated... 

     total cpu time spent up to now is      103.3 secs

     Self-consistent Calculation

     iteration #  1     ecut=    48.00 Ry     beta= 0.50
     Davidson diagonalization with overlap
     ethr =  1.00E-02,  avg # of iterations =  2.6

     negative rho (up, down):  4.837E-03 2.938E-03

     total cpu time spent up to now is      356.7 secs

     total energy              =   -1130.73130518 Ry
     estimated scf accuracy    <      11.37943708 Ry

     total magnetization       =    12.00 Bohr mag/cell
     absolute magnetization    =    12.17 Bohr mag/cell

     iteration #  2     ecut=    48.00 Ry     beta= 0.50
     Davidson diagonalization with overlap
     ethr =  7.29E-03,  avg # of iterations =  3.1

     negative rho (up, down):  1.106E-02 1.059E-02

     total cpu time spent up to now is      605.4 secs

     total energy              =   -1132.38257688 Ry
     estimated scf accuracy    <       5.09040215 Ry

     total magnetization       =     8.89 Bohr mag/cell
     absolute magnetization    =     9.45 Bohr mag/cell

     iteration #  3     ecut=    48.00 Ry     beta= 0.50
     Davidson diagonalization with overlap
     ethr =  3.26E-03,  avg # of iterations =  7.1

     negative rho (up, down):  7.539E-03 7.793E-03

     total cpu time spent up to now is      808.0 secs

     total energy              =   -1133.49964081 Ry
     estimated scf accuracy    <       1.44843257 Ry

     total magnetization       =    10.00 Bohr mag/cell
     absolute magnetization    =    10.21 Bohr mag/cell

     iteration #  4     ecut=    48.00 Ry     beta= 0.50
     Davidson diagonalization with overlap
     ethr =  9.28E-04,  avg # of iterations =  5.2

     negative rho (up, down):  6.270E-03 5.650E-03

     total cpu time spent up to now is      978.2 secs

     total energy              =   -1133.80769564 Ry
     estimated scf accuracy    <       0.24302619 Ry

     total magnetization       =    10.00 Bohr mag/cell
     absolute magnetization    =    10.09 Bohr mag/cell

     iteration #  5     ecut=    48.00 Ry     beta= 0.50
     Davidson diagonalization with overlap
     ethr =  1.56E-04,  avg # of iterations = 10.4

     negative rho (up, down):  3.931E-03 4.092E-03

     total cpu time spent up to now is     1172.3 secs

     total energy              =   -1133.79604792 Ry
     estimated scf accuracy    <       0.17459986 Ry

     total magnetization       =    10.00 Bohr mag/cell
     absolute magnetization    =    10.03 Bohr mag/cell

     iteration #  6     ecut=    48.00 Ry     beta= 0.50
     Davidson diagonalization with overlap
     ethr =  1.12E-04,  avg # of iterations =  5.6

     negative rho (up, down):  3.472E-03 3.882E-03

     total cpu time spent up to now is     1358.5 secs

     total energy              =   -1133.80640050 Ry
     estimated scf accuracy    <       0.16444797 Ry

     total magnetization       =    10.00 Bohr mag/cell
     absolute magnetization    =    10.03 Bohr mag/cell

     iteration #  7     ecut=    48.00 Ry     beta= 0.50
     Davidson diagonalization with overlap
     ethr =  1.05E-04,  avg # of iterations =  5.5

     negative rho (up, down):  3.238E-03 3.755E-03

     total cpu time spent up to now is     1533.5 secs

     total energy              =   -1133.82555984 Ry
     estimated scf accuracy    <       0.02393922 Ry

     total magnetization       =    10.00 Bohr mag/cell
     absolute magnetization    =    10.03 Bohr mag/cell

     iteration #  8     ecut=    48.00 Ry     beta= 0.50
     Davidson diagonalization with overlap
     ethr =  1.53E-05,  avg # of iterations =  6.5

     negative rho (up, down):  3.150E-03 3.760E-03

     total cpu time spent up to now is     1702.7 secs

     total energy              =   -1133.82793155 Ry
     estimated scf accuracy    <       0.00132245 Ry

     total magnetization       =    10.00 Bohr mag/cell
     absolute magnetization    =    10.02 Bohr mag/cell

     iteration #  9     ecut=    48.00 Ry     beta= 0.50
     Davidson diagonalization with overlap
     c_bands:  2 eigenvalues not converged
     c_bands:  2 eigenvalues not converged
     c_bands:  1 eigenvalues not converged
     ethr =  8.48E-07,  avg # of iterations =  9.4

     negative rho (up, down):  3.124E-03 3.783E-03

     total cpu time spent up to now is     1933.6 secs

     total energy              =   -1133.82827328 Ry
     estimated scf accuracy    <       0.00022735 Ry

     total magnetization       =    10.00 Bohr mag/cell
     absolute magnetization    =    10.01 Bohr mag/cell

     iteration # 10     ecut=    48.00 Ry     beta= 0.50
     Davidson diagonalization with overlap
     ethr =  1.46E-07,  avg # of iterations =  2.8

     negative rho (up, down):  3.113E-03 3.790E-03

     total cpu time spent up to now is     2155.8 secs

     total energy              =   -1133.82832287 Ry
     estimated scf accuracy    <       0.00005803 Ry

     total magnetization       =    10.00 Bohr mag/cell
     absolute magnetization    =    10.01 Bohr mag/cell

     iteration # 11     ecut=    48.00 Ry     beta= 0.50
     Davidson diagonalization with overlap
     ethr =  3.72E-08,  avg # of iterations =  3.2

     negative rho (up, down):  3.108E-03 3.797E-03

     total cpu time spent up to now is     2385.9 secs

     total energy              =   -1133.82834044 Ry
     estimated scf accuracy    <       0.00001324 Ry

     total magnetization       =    10.00 Bohr mag/cell
     absolute magnetization    =    10.01 Bohr mag/cell

     iteration # 12     ecut=    48.00 Ry     beta= 0.50
     Davidson diagonalization with overlap
     ethr =  8.49E-09,  avg # of iterations =  4.7

     negative rho (up, down):  3.105E-03 3.800E-03

     total cpu time spent up to now is     2618.0 secs

     total energy              =   -1133.82834555 Ry
     estimated scf accuracy    <       0.00000142 Ry

     total magnetization       =    10.00 Bohr mag/cell
     absolute magnetization    =    10.01 Bohr mag/cell

     iteration # 13     ecut=    48.00 Ry     beta= 0.50
     Davidson diagonalization with overlap
     ethr =  9.08E-10,  avg # of iterations =  3.9

     negative rho (up, down):  3.103E-03 3.802E-03

     total cpu time spent up to now is     2821.1 secs

     total energy              =   -1133.82834669 Ry
     estimated scf accuracy    <       0.00000049 Ry

     total magnetization       =    10.00 Bohr mag/cell
     absolute magnetization    =    10.01 Bohr mag/cell

     iteration # 14     ecut=    48.00 Ry     beta= 0.50
     Davidson diagonalization with overlap
     ethr =  3.17E-10,  avg # of iterations =  4.0

     negative rho (up, down):  3.103E-03 3.804E-03
 
     Magnetic moment per site:
     atom:    1    charge:    0.8805    magn:    0.0001    constr:    0.0000
     atom:    2    charge:    0.8800    magn:    0.0003    constr:    0.0000
     atom:    3    charge:    0.8804    magn:    0.0000    constr:    0.0000
     atom:    4    charge:    0.8802    magn:    0.0001    constr:    0.0000
     atom:    5    charge:    0.8801    magn:    0.0001    constr:    0.0000
     atom:    6    charge:    0.8807    magn:    0.0000    constr:    0.0000
     atom:    7    charge:    2.8610    magn:    0.0003    constr:    0.0000
     atom:    8    charge:    2.8610    magn:    0.0067    constr:    0.0000
     atom:    9    charge:    2.8610    magn:    0.0001    constr:    0.0000
     atom:   10    charge:    2.8609    magn:    0.0002    constr:    0.0000
     atom:   11    charge:    2.8606    magn:    0.0019    constr:    0.0000
     atom:   12    charge:    2.8609    magn:    0.0013    constr:    0.0000
     atom:   13    charge:    2.8597    magn:    0.0019    constr:    0.0000
     atom:   14    charge:    2.8595    magn:    0.0022    constr:    0.0000
     atom:   15    charge:    2.8600    magn:    0.0001    constr:    0.0000
     atom:   16    charge:    0.8805    magn:    0.0001    constr:    0.0000
     atom:   17    charge:    0.8797    magn:    0.0003    constr:    0.0000
     atom:   18    charge:    0.8803    magn:    0.0001    constr:    0.0000
     atom:   19    charge:    0.8795    magn:    0.0001    constr:    0.0000
     atom:   20    charge:    0.8799    magn:    0.0001    constr:    0.0000
     atom:   21    charge:    0.8802    magn:    0.0001    constr:    0.0000
     atom:   22    charge:    2.8610    magn:    0.0019    constr:    0.0000
     atom:   23    charge:    0.8803    magn:    0.0001    constr:    0.0000
     atom:   24    charge:    0.8788    magn:    0.0005    constr:    0.0000
     atom:   25    charge:    0.8799    magn:    0.0001    constr:    0.0000
     atom:   26    charge:    2.8598    magn:    0.0013    constr:    0.0000
     atom:   27    charge:    2.8599    magn:    0.0067    constr:    0.0000
     atom:   28    charge:    2.8597    magn:    0.0016    constr:    0.0000
     atom:   29    charge:    2.8596    magn:    0.0016    constr:    0.0000
     atom:   30    charge:    2.8596    magn:    0.0001    constr:    0.0000
     atom:   31    charge:    2.8596    magn:    0.0002    constr:    0.0000
     atom:   32    charge:    0.8802    magn:    0.0001    constr:    0.0000
     atom:   33    charge:   12.5181    magn:    4.2386    constr:    0.0000
     atom:   34    charge:   12.5179    magn:    4.2386    constr:    0.0000

     total cpu time spent up to now is     2991.4 secs

     End of self-consistent calculation

 ------ SPIN UP ------------


          k = 0.1667 0.2887 0.0000 ( 59267 PWs)   bands (ev):

   -72.9169 -72.9089 -44.4715 -44.3918 -44.3187 -44.3109 -44.2851 -44.2772
   -21.2227 -20.6355 -20.6329 -20.0784 -20.0749 -19.5624 -19.5605 -19.0757
   -18.6729 -18.6685 -18.4316 -18.4294 -18.1707 -18.0613 -18.0556 -17.8262
   -12.4600 -12.1804 -12.1790 -11.7964 -11.7943 -11.6346 -11.1674 -11.1657
   -10.3677 -10.3440 -10.0927 -10.0921  -9.5651  -9.5645  -8.8049  -8.8015
    -8.8002  -8.7420  -8.7388  -8.5728  -8.1736  -8.0207  -7.9877  -7.8057
    -7.8038  -7.4147  -7.4134  -7.2499  -7.2330  -7.1846  -7.1834  -6.9351
    -6.9341  -6.5368  -6.5112  -6.1305  -6.1295  -5.8433  -5.3951  -5.2691
    -5.2448  -5.1769  -4.8834  -4.8758  -4.4784  -4.3294  -4.3142  -3.9531
    -2.9228  -2.0710  -2.0585  -1.8715  -1.6773  -1.6076  -1.5134  -1.5071
    -1.4079  -1.3950  -1.3432  -0.7714   0.6271   0.8386   1.0376   1.2192
     1.3040   1.4889   1.5410   1.6007   1.6396   1.7736

          k = 0.1667-0.4811 0.0000 ( 59291 PWs)   bands (ev):

   -72.9169 -72.9089 -44.4715 -44.3918 -44.3187 -44.3109 -44.2851 -44.2772
   -21.0921 -20.8884 -20.6988 -20.1368 -19.7807 -19.4425 -19.2936 -19.1509
   -18.9904 -18.7548 -18.6179 -18.5208 -18.1244 -18.0667 -17.8986 -17.7005
   -12.3242 -12.0890 -12.0203 -11.8826 -11.6563 -11.6346 -11.5289 -10.9179
   -10.8661 -10.5994 -10.4995  -9.8362  -9.6697  -9.3123  -9.0871  -8.6349
    -8.5992  -8.5295  -8.3654  -8.3402  -8.1379  -8.0927  -8.0394  -8.0267
    -7.6651  -7.5998  -7.4706  -7.4511  -7.3266  -7.1473  -7.0443  -6.8327
    -6.5984  -6.3601  -6.1507  -6.1345  -5.9445  -5.9056  -5.7603  -5.7164
    -5.4282  -5.3686  -5.1810  -5.0156  -4.4156  -4.3225  -4.0628  -3.7415
    -2.9201  -2.0713  -2.0582  -1.8682  -1.6762  -1.6073  -1.5153  -1.5087
    -1.4079  -1.3951  -1.3437  -0.7747   0.5448   0.8408   1.0798   1.1084
     1.2282   1.2864   1.4144   1.8555   1.9339   2.1185

          k = 0.1667-0.0962 0.0000 ( 59226 PWs)   bands (ev):

   -72.9169 -72.9089 -44.4715 -44.3918 -44.3187 -44.3108 -44.2851 -44.2772
   -21.2892 -20.5113 -20.3240 -20.3131 -19.9662 -19.9549 -19.7824 -18.7079
   -18.6961 -18.3508 -18.3459 -18.3311 -18.2420 -18.2409 -18.0556 -18.0466
   -12.4813 -12.4800 -12.3838 -11.5584 -11.5514 -11.3995 -11.3992 -10.9027
   -10.8994  -9.9064  -9.9014  -9.6520  -9.3508  -9.3487  -9.2063  -9.2039
    -9.0184  -9.0168  -8.8930  -8.3006  -8.2967  -7.8778  -7.8761  -7.8484
    -7.8215  -7.7470  -7.5843  -7.5520  -7.1060  -7.0608  -6.9358  -6.8654
    -6.8616  -6.8250  -6.5089  -6.5038  -6.2342  -5.3267  -5.2847  -5.1200
    -5.0420  -4.7844  -4.7726  -4.7209  -4.5854  -4.5803  -4.3278  -4.3028
    -2.9255  -2.0707  -2.0588  -1.8747  -1.6794  -1.6077  -1.5118  -1.5055
    -1.4079  -1.3949  -1.3428  -0.7678   0.7253   0.8126   1.0006   1.2328
     1.3016   1.3603   1.5945   1.6133   1.7109   1.9200

          k =-0.5000-0.8660 0.0000 ( 59292 PWs)   bands (ev):

   -72.9169 -72.9089 -44.4715 -44.3918 -44.3187 -44.3109 -44.2850 -44.2772
   -21.0248 -21.0233 -20.4482 -20.4377 -19.4029 -19.3989 -19.3871 -19.3855
   -18.9674 -18.9668 -18.2964 -18.2962 -18.2950 -18.2939 -17.7725 -17.7628
   -12.0422 -12.0413 -12.0408 -12.0393 -11.8556 -11.8478 -11.3050 -11.3039
   -10.2127 -10.2064 -10.1112 -10.1101 -10.1035 -10.1028  -8.5550  -8.5235
    -8.5226  -8.5220  -8.5196  -8.5150  -7.8417  -7.8411  -7.8343  -7.8333
    -7.8007  -7.7942  -7.7567  -7.7226  -7.4665  -7.4633  -6.5897  -6.5824
    -6.3298  -6.3082  -6.2724  -6.2649  -6.1665  -6.1642  -5.6845  -5.6695
    -5.5212  -5.5195  -4.6958  -4.6931  -4.6715  -4.6664  -3.8652  -3.8374
    -2.9079  -2.0700  -2.0557  -1.8693  -1.6773  -1.6069  -1.5152  -1.5102
    -1.4112  -1.4013  -1.3494  -0.8936   0.7115   1.0346   1.1388   1.1528
     1.3430   1.5675   1.6085   1.6406   1.7313   1.7420

          k =-0.1667 0.2887 0.0000 ( 59267 PWs)   bands (ev):

   -72.9169 -72.9089 -44.4715 -44.3918 -44.3187 -44.3109 -44.2851 -44.2772
   -21.2227 -20.6355 -20.6329 -20.0784 -20.0749 -19.5624 -19.5605 -19.0757
   -18.6729 -18.6685 -18.4316 -18.4294 -18.1707 -18.0613 -18.0556 -17.8262
   -12.4600 -12.1805 -12.1790 -11.7964 -11.7943 -11.6346 -11.1674 -11.1656
   -10.3677 -10.3440 -10.0927 -10.0921  -9.5651  -9.5645  -8.8049  -8.8015
    -8.8001  -8.7421  -8.7388  -8.5727  -8.1737  -8.0207  -7.9877  -7.8057
    -7.8038  -7.4147  -7.4134  -7.2499  -7.2330  -7.1845  -7.1834  -6.9351
    -6.9342  -6.5368  -6.5112  -6.1305  -6.1295  -5.8433  -5.3952  -5.2691
    -5.2449  -5.1768  -4.8834  -4.8758  -4.4784  -4.3294  -4.3142  -3.9531
    -2.9228  -2.0710  -2.0585  -1.8715  -1.6773  -1.6076  -1.5134  -1.5071
    -1.4079  -1.3950  -1.3432  -0.7714   0.6271   0.8386   1.0376   1.2192
     1.3040   1.4889   1.5410   1.6006   1.6396   1.7736

          k = 0.3333 0.0000 0.0000 ( 59267 PWs)   bands (ev):

   -72.9169 -72.9089 -44.4715 -44.3918 -44.3187 -44.3108 -44.2851 -44.2772
   -21.2223 -20.6602 -20.6081 -20.0865 -20.0651 -19.5883 -19.5364 -19.0778
   -18.6896 -18.6469 -18.4423 -18.4202 -18.1668 -18.0844 -18.0390 -17.8253
   -12.4591 -12.1873 -12.1725 -11.8055 -11.7875 -11.6329 -11.1842 -11.1489
   -10.3676 -10.3432 -10.1065 -10.0791  -9.5709  -9.5573  -8.8077  -8.8054
    -8.7905  -8.7637  -8.7188  -8.5737  -8.1754  -8.0661  -7.9418  -7.8063
    -7.8012  -7.4205  -7.4069  -7.2688  -7.2091  -7.1940  -7.1736  -6.9445
    -6.9262  -6.5850  -6.4695  -6.1333  -6.1259  -5.8493  -5.3950  -5.2858
    -5.2175  -5.1772  -4.9055  -4.8553  -4.4720  -4.3617  -4.2940  -3.9512
    -2.9147  -2.0701  -2.0563  -1.8723  -1.6791  -1.6072  -1.5129  -1.5082
    -1.4101  -1.3992  -1.3469  -0.8540   0.7416   1.0088   1.1017   1.2421
     1.3248   1.4916   1.5490   1.5743   1.5972   1.8158

          k =-0.1667-0.4811 0.0000 ( 59291 PWs)   bands (ev):

   -72.9169 -72.9089 -44.4715 -44.3918 -44.3187 -44.3109 -44.2851 -44.2772
   -21.0921 -20.8884 -20.6988 -20.1369 -19.7807 -19.4425 -19.2936 -19.1509
   -18.9904 -18.7548 -18.6179 -18.5208 -18.1244 -18.0667 -17.8986 -17.7005
   -12.3242 -12.0890 -12.0203 -11.8826 -11.6563 -11.6346 -11.5289 -10.9179
   -10.8661 -10.5995 -10.4995  -9.8362  -9.6697  -9.3124  -9.0872  -8.6349
    -8.5992  -8.5295  -8.3654  -8.3402  -8.1379  -8.0927  -8.0394  -8.0268
    -7.6651  -7.5999  -7.4706  -7.4511  -7.3266  -7.1473  -7.0443  -6.8327
    -6.5984  -6.3601  -6.1507  -6.1346  -5.9445  -5.9055  -5.7603  -5.7164
    -5.4282  -5.3686  -5.1810  -5.0156  -4.4156  -4.3225  -4.0628  -3.7415
    -2.9201  -2.0713  -2.0582  -1.8682  -1.6762  -1.6073  -1.5153  -1.5087
    -1.4079  -1.3951  -1.3437  -0.7747   0.5448   0.8408   1.0798   1.1085
     1.2282   1.2864   1.4145   1.8556   1.9339   2.1187

          k = 0.5000-0.0962 0.0000 ( 59291 PWs)   bands (ev):

   -72.9169 -72.9089 -44.4715 -44.3918 -44.3187 -44.3109 -44.2851 -44.2772
   -21.0896 -20.8953 -20.6944 -20.1353 -19.7803 -19.4449 -19.2985 -19.1462
   -18.9918 -18.7565 -18.6073 -18.5264 -18.1132 -18.0825 -17.8959 -17.7001
   -12.3225 -12.0897 -12.0187 -11.8865 -11.6676 -11.6214 -11.5306 -10.9185
   -10.8639 -10.5977 -10.5019  -9.8343  -9.6700  -9.3131  -9.0866  -8.6256
    -8.5998  -8.5277  -8.3710  -8.3648  -8.1362  -8.0764  -8.0520  -8.0152
    -7.6613  -7.6003  -7.4698  -7.4521  -7.3216  -7.1486  -7.0450  -6.8306
    -6.5989  -6.3700  -6.1632  -6.1339  -5.9306  -5.9050  -5.7595  -5.7202
    -5.4292  -5.3717  -5.1570  -5.0281  -4.3955  -4.3506  -4.0586  -3.7403
    -2.9079  -2.0700  -2.0557  -1.8693  -1.6778  -1.6068  -1.5152  -1.5102
    -1.4112  -1.4013  -1.3494  -0.8933   0.6967   1.0328   1.1383   1.1760
     1.2660   1.3194   1.5279   1.7485   1.8421   1.9397

          k =-0.3333-0.3849 0.0000 ( 59291 PWs)   bands (ev):

   -72.9169 -72.9089 -44.4715 -44.3918 -44.3187 -44.3109 -44.2851 -44.2772
   -21.0905 -20.8929 -20.6962 -20.1350 -19.7825 -19.4428 -19.2937 -19.1498
   -18.9944 -18.7545 -18.6086 -18.5260 -18.1155 -18.0794 -17.8961 -17.7003
   -12.3236 -12.0873 -12.0209 -11.8849 -11.6574 -11.6330 -11.5299 -10.9184
   -10.8639 -10.5972 -10.5023  -9.8347  -9.6701  -9.3128  -9.0877  -8.6287
    -8.5985  -8.5292  -8.3669  -8.3567  -8.1374  -8.0829  -8.0392  -8.0293
    -7.6615  -7.5991  -7.4760  -7.4462  -7.3199  -7.1487  -7.0456  -6.8387
    -6.5970  -6.3618  -6.1495  -6.1360  -5.9428  -5.9039  -5.7598  -5.7273
    -5.4291  -5.3660  -5.1579  -5.0295  -4.3979  -4.3472  -4.0584  -3.7408
    -2.9120  -2.0705  -2.0568  -1.8689  -1.6769  -1.6070  -1.5149  -1.5100
    -1.4101  -1.3992  -1.3474  -0.8572   0.6462   0.9884   1.1170   1.1322
     1.2462   1.3734   1.4136   1.8173   1.8949   1.9275

          k = 0.5000 0.0962 0.0000 ( 59291 PWs)   bands (ev):

   -72.9169 -72.9089 -44.4715 -44.3918 -44.3187 -44.3109 -44.2851 -44.2772
   -21.0896 -20.8953 -20.6944 -20.1353 -19.7803 -19.4449 -19.2985 -19.1462
   -18.9917 -18.7565 -18.6073 -18.5264 -18.1132 -18.0825 -17.8959 -17.7001
   -12.3225 -12.0897 -12.0186 -11.8865 -11.6676 -11.6214 -11.5306 -10.9185
   -10.8639 -10.5977 -10.5019  -9.8343  -9.6701  -9.3131  -9.0866  -8.6256
    -8.5998  -8.5277  -8.3710  -8.3648  -8.1362  -8.0764  -8.0519  -8.0152
    -7.6613  -7.6003  -7.4698  -7.4521  -7.3216  -7.1487  -7.0450  -6.8306
    -6.5988  -6.3700  -6.1632  -6.1338  -5.9306  -5.9050  -5.7596  -5.7202
    -5.4293  -5.3718  -5.1569  -5.0281  -4.3955  -4.3506  -4.0586  -3.7403
    -2.9079  -2.0700  -2.0557  -1.8693  -1.6778  -1.6068  -1.5152  -1.5102
    -1.4112  -1.4013  -1.3494  -0.8933   0.6967   1.0328   1.1383   1.1761
     1.2660   1.3194   1.5279   1.7485   1.8421   1.9396

          k =-0.3333 0.3849 0.0000 ( 59291 PWs)   bands (ev):

   -72.9169 -72.9089 -44.4715 -44.3918 -44.3187 -44.3109 -44.2851 -44.2772
   -21.0905 -20.8929 -20.6961 -20.1350 -19.7825 -19.4428 -19.2937 -19.1499
   -18.9944 -18.7545 -18.6086 -18.5260 -18.1155 -18.0794 -17.8961 -17.7003
   -12.3236 -12.0873 -12.0209 -11.8849 -11.6575 -11.6330 -11.5299 -10.9184
   -10.8638 -10.5972 -10.5023  -9.8347  -9.6701  -9.3128  -9.0877  -8.6287
    -8.5985  -8.5292  -8.3670  -8.3567  -8.1375  -8.0829  -8.0391  -8.0293
    -7.6615  -7.5991  -7.4761  -7.4462  -7.3200  -7.1486  -7.0457  -6.8387
    -6.5970  -6.3618  -6.1495  -6.1360  -5.9428  -5.9040  -5.7597  -5.7273
    -5.4290  -5.3660  -5.1579  -5.0295  -4.3979  -4.3473  -4.0583  -3.7408
    -2.9120  -2.0705  -2.0568  -1.8689  -1.6769  -1.6070  -1.5149  -1.5100
    -1.4101  -1.3992  -1.3474  -0.8572   0.6462   0.9884   1.1170   1.1322
     1.2462   1.3734   1.4136   1.8172   1.8948   1.9275

          k =-0.1667-0.0962 0.0000 ( 59226 PWs)   bands (ev):

   -72.9169 -72.9089 -44.4715 -44.3918 -44.3187 -44.3108 -44.2851 -44.2772
   -21.2892 -20.5113 -20.3240 -20.3131 -19.9662 -19.9549 -19.7824 -18.7079
   -18.6961 -18.3508 -18.3460 -18.3311 -18.2420 -18.2409 -18.0556 -18.0466
   -12.4813 -12.4800 -12.3838 -11.5584 -11.5514 -11.3995 -11.3992 -10.9027
   -10.8994  -9.9064  -9.9014  -9.6520  -9.3508  -9.3487  -9.2063  -9.2039
    -9.0184  -9.0168  -8.8930  -8.3006  -8.2968  -7.8778  -7.8761  -7.8484
    -7.8215  -7.7471  -7.5843  -7.5520  -7.1060  -7.0608  -6.9359  -6.8653
    -6.8616  -6.8250  -6.5089  -6.5038  -6.2343  -5.3267  -5.2847  -5.1199
    -5.0421  -4.7844  -4.7725  -4.7209  -4.5854  -4.5803  -4.3278  -4.3029
    -2.9255  -2.0707  -2.0588  -1.8747  -1.6794  -1.6077  -1.5118  -1.5055
    -1.4079  -1.3949  -1.3428  -0.7678   0.7253   0.8126   1.0006   1.2327
     1.3016   1.3604   1.5945   1.6133   1.7109   1.9200

          k =-0.0000-0.1925 0.0000 ( 59226 PWs)   bands (ev):

   -72.9169 -72.9089 -44.4715 -44.3918 -44.3187 -44.3109 -44.2851 -44.2772
   -21.2893 -20.5069 -20.3275 -20.3175 -19.9619 -19.9525 -19.7855 -18.7048
   -18.6957 -18.3766 -18.3393 -18.3292 -18.2338 -18.2308 -18.0578 -18.0491
   -12.4881 -12.4734 -12.3836 -11.5588 -11.5519 -11.4066 -11.3900 -10.9034
   -10.9003  -9.9045  -9.9034  -9.6519  -9.3550  -9.3433  -9.2062  -9.2056
    -9.0182  -9.0166  -8.8935  -8.2995  -8.2974  -7.8787  -7.8735  -7.8340
    -7.8205  -7.7487  -7.5979  -7.5668  -7.0831  -7.0613  -6.9346  -6.8660
    -6.8622  -6.8347  -6.5082  -6.5039  -6.2347  -5.3131  -5.2904  -5.1201
    -5.0418  -4.8287  -4.7539  -4.7257  -4.5748  -4.5593  -4.3270  -4.3124
    -2.9294  -2.0711  -2.0599  -1.8742  -1.6785  -1.6079  -1.5124  -1.5049
    -1.4068  -1.3929  -1.3412  -0.7195   0.6323   0.7561   0.9837   1.2100
     1.2599   1.4192   1.5854   1.6327   1.6708   2.0224

          k = 0.5000-0.8660 0.0000 ( 59292 PWs)   bands (ev):

   -72.9169 -72.9089 -44.4715 -44.3918 -44.3187 -44.3109 -44.2850 -44.2772
   -21.0247 -21.0233 -20.4482 -20.4377 -19.4029 -19.3989 -19.3871 -19.3855
   -18.9674 -18.9668 -18.2964 -18.2962 -18.2950 -18.2939 -17.7725 -17.7628
   -12.0422 -12.0414 -12.0407 -12.0393 -11.8556 -11.8477 -11.3049 -11.3039
   -10.2127 -10.2064 -10.1112 -10.1101 -10.1035 -10.1028  -8.5550  -8.5234
    -8.5226  -8.5219  -8.5196  -8.5150  -7.8417  -7.8410  -7.8343  -7.8333
    -7.8007  -7.7943  -7.7567  -7.7226  -7.4666  -7.4633  -6.5897  -6.5823
    -6.3298  -6.3082  -6.2724  -6.2649  -6.1664  -6.1642  -5.6846  -5.6695
    -5.5213  -5.5196  -4.6957  -4.6931  -4.6716  -4.6664  -3.8652  -3.8374
    -2.9079  -2.0700  -2.0557  -1.8693  -1.6773  -1.6069  -1.5152  -1.5102
    -1.4112  -1.4013  -1.3494  -0.8936   0.7115   1.0346   1.1388   1.1528
     1.3430   1.5675   1.6084   1.6405   1.7313   1.7421

          k =-1.0000 0.0000 0.0000 ( 59292 PWs)   bands (ev):

   -72.9169 -72.9089 -44.4715 -44.3918 -44.3187 -44.3109 -44.2851 -44.2772
   -21.0489 -20.9966 -20.4500 -20.4401 -19.4050 -19.4010 -19.3888 -19.3743
   -18.9888 -18.9464 -18.3550 -18.2860 -18.2837 -18.2578 -17.7727 -17.7643
   -12.0843 -12.0425 -12.0239 -12.0102 -11.8561 -11.8473 -11.3243 -11.2859
   -10.2167 -10.2154 -10.1077 -10.1069 -10.1015 -10.1005  -8.5949  -8.5543
    -8.5253  -8.5086  -8.4937  -8.4676  -7.8512  -7.8424  -7.8382  -7.8360
    -7.7904  -7.7902  -7.7595  -7.7332  -7.4892  -7.4427  -6.5874  -6.5820
    -6.3288  -6.3092  -6.2730  -6.2478  -6.1845  -6.1488  -5.7122  -5.6462
    -5.5420  -5.4990  -4.7922  -4.6731  -4.6466  -4.6179  -3.8594  -3.8465
    -2.9241  -2.0718  -2.0584  -1.8678  -1.6758  -1.6074  -1.5155  -1.5080
    -1.4068  -1.3932  -1.3420  -0.7272   0.5048   0.7443   1.0688   1.1232
     1.1620   1.5649   1.5966   1.6388   1.6570   1.9324

 ------ SPIN DOWN ----------


          k = 0.1667 0.2887 0.0000 ( 59267 PWs)   bands (ev):

   -68.7191 -68.7098 -40.4069 -40.3124 -40.1410 -40.1316 -40.0781 -40.0687
   -21.2196 -20.6329 -20.6293 -20.0750 -20.0718 -19.5602 -19.5563 -19.0723
   -18.6688 -18.6651 -18.4282 -18.4261 -18.1666 -18.0580 -18.0526 -17.8226
   -12.4583 -12.1786 -12.1772 -11.7949 -11.7926 -11.6330 -11.1658 -11.1634
   -10.3655 -10.3421 -10.0908 -10.0897  -9.5633  -9.5624  -8.7993  -8.7979
    -8.7895  -8.7406  -8.7364  -8.5709  -8.1717  -8.0011  -7.9804  -7.8035
    -7.8019  -7.4118  -7.4111  -7.2342  -7.2223  -7.1828  -7.1810  -6.9330
    -6.9321  -6.5191  -6.5047  -6.1282  -6.1273  -5.8301  -5.3925  -5.2483
    -5.2366  -5.1746  -4.8711  -4.8652  -4.4642  -4.3163  -4.3073  -3.9414
    -1.4909   0.3598   0.8416   0.9573   1.1030   1.2057   1.2904   1.3736
     1.4162   1.4817   1.5684   1.6153   1.6238   1.7232   1.8599   2.0076
     2.0326   2.0466   2.1104   2.1339   2.2782   2.3073

          k = 0.1667-0.4811 0.0000 ( 59291 PWs)   bands (ev):

   -68.7191 -68.7098 -40.4069 -40.3124 -40.1410 -40.1316 -40.0781 -40.0687
   -21.0887 -20.8858 -20.6956 -20.1336 -19.7775 -19.4393 -19.2903 -19.1475
   -18.9871 -18.7516 -18.6133 -18.5181 -18.1195 -18.0646 -17.8949 -17.6968
   -12.3224 -12.0873 -12.0186 -11.8809 -11.6548 -11.6326 -11.5271 -10.9159
   -10.8639 -10.5974 -10.4977  -9.8339  -9.6678  -9.3101  -9.0852  -8.6169
    -8.5971  -8.5271  -8.3636  -8.3306  -8.1359  -8.0793  -8.0375  -8.0247
    -7.6627  -7.5978  -7.4685  -7.4491  -7.3124  -7.1449  -7.0423  -6.8197
    -6.5957  -6.3477  -6.1369  -6.1323  -5.9319  -5.9029  -5.7580  -5.7043
    -5.4260  -5.3571  -5.1620  -5.0081  -4.3981  -4.3173  -4.0510  -3.7298
    -1.4822   0.3492   0.8389   0.9257   1.0676   1.1403   1.2165   1.2858
     1.3644   1.3940   1.5556   1.7203   1.7707   1.8877   1.9141   2.0437
     2.0914   2.1168   2.1477   2.2074   2.2850   2.3148

          k = 0.1667-0.0962 0.0000 ( 59226 PWs)   bands (ev):

   -68.7191 -68.7098 -40.4068 -40.3124 -40.1410 -40.1316 -40.0781 -40.0687
   -21.2861 -20.5077 -20.3206 -20.3106 -19.9621 -19.9522 -19.7796 -18.7034
   -18.6932 -18.3464 -18.3426 -18.3281 -18.2382 -18.2374 -18.0521 -18.0438
   -12.4795 -12.4784 -12.3821 -11.5564 -11.5500 -11.3977 -11.3973 -10.9006
   -10.8976  -9.9041  -9.8998  -9.6498  -9.3488  -9.3468  -9.2039  -9.2018
    -9.0164  -9.0150  -8.8784  -8.2980  -8.2945  -7.8755  -7.8741  -7.8315
    -7.8180  -7.7451  -7.5701  -7.5443  -7.0855  -7.0528  -6.9336  -6.8631
    -6.8598  -6.8163  -6.5065  -6.5020  -6.2321  -5.3056  -5.2760  -5.1175
    -5.0396  -4.7663  -4.7593  -4.7125  -4.5738  -4.5700  -4.3149  -4.2952
    -1.4996   0.3728   0.8408   0.9790   1.0517   1.1644   1.2374   1.3065
     1.5060   1.5544   1.5907   1.6687   1.7919   1.8067   1.8700   1.9237
     2.0090   2.0428   2.0917   2.1126   2.2285   2.3052

          k =-0.5000-0.8660 0.0000 ( 59292 PWs)   bands (ev):

   -68.7191 -68.7098 -40.4069 -40.3124 -40.1410 -40.1317 -40.0781 -40.0687
   -21.0226 -21.0191 -20.4447 -20.4352 -19.3984 -19.3949 -19.3846 -19.3829
   -18.9652 -18.9626 -18.2944 -18.2940 -18.2900 -18.2887 -17.7685 -17.7597
   -12.0411 -12.0402 -12.0382 -12.0368 -11.8537 -11.8466 -11.3035 -11.3016
   -10.2103 -10.2049 -10.1086 -10.1078 -10.1017 -10.1009  -8.5326  -8.5214
    -8.5208  -8.5192  -8.5169  -8.5088  -7.8392  -7.8387  -7.8327  -7.8317
    -7.7979  -7.7917  -7.7414  -7.7147  -7.4653  -7.4606  -6.5869  -6.5807
    -6.3041  -6.2911  -6.2657  -6.2586  -6.1646  -6.1613  -5.6685  -5.6628
    -5.5198  -5.5164  -4.6766  -4.6733  -4.6656  -4.6624  -3.8505  -3.8296
    -1.4589   0.1100   0.8532   1.0026   1.0945   1.1318   1.2613   1.4278
     1.5233   1.5766   1.5923   1.7060   1.7543   1.8601   1.8894   1.9197
     1.9354   2.0612   2.1555   2.1838   2.2869   2.3147

          k =-0.1667 0.2887 0.0000 ( 59267 PWs)   bands (ev):

   -68.7191 -68.7098 -40.4069 -40.3124 -40.1410 -40.1316 -40.0781 -40.0687
   -21.2196 -20.6329 -20.6293 -20.0750 -20.0718 -19.5602 -19.5563 -19.0723
   -18.6688 -18.6651 -18.4282 -18.4261 -18.1666 -18.0580 -18.0526 -17.8226
   -12.4583 -12.1786 -12.1772 -11.7949 -11.7926 -11.6330 -11.1658 -11.1634
   -10.3655 -10.3421 -10.0908 -10.0897  -9.5633  -9.5624  -8.7992  -8.7978
    -8.7895  -8.7407  -8.7364  -8.5708  -8.1718  -8.0011  -7.9804  -7.8035
    -7.8018  -7.4118  -7.4111  -7.2342  -7.2223  -7.1828  -7.1810  -6.9331
    -6.9321  -6.5191  -6.5047  -6.1282  -6.1273  -5.8301  -5.3926  -5.2483
    -5.2366  -5.1745  -4.8711  -4.8652  -4.4642  -4.3163  -4.3073  -3.9414
    -1.4909   0.3598   0.8417   0.9573   1.1030   1.2057   1.2904   1.3736
     1.4162   1.4817   1.5684   1.6153   1.6238   1.7232   1.8599   2.0076
     2.0326   2.0466   2.1104   2.1338   2.2782   2.3073

          k = 0.3333 0.0000 0.0000 ( 59267 PWs)   bands (ev):

   -68.7191 -68.7098 -40.4069 -40.3124 -40.1410 -40.1316 -40.0781 -40.0687
   -21.2192 -20.6556 -20.6065 -20.0829 -20.0625 -19.5834 -19.5348 -19.0741
   -18.6844 -18.6453 -18.4382 -18.4172 -18.1633 -18.0788 -18.0373 -17.8219
   -12.4574 -12.1852 -12.1710 -11.8035 -11.7860 -11.6314 -11.1815 -11.1476
   -10.3655 -10.3413 -10.1035 -10.0778  -9.5687  -9.5558  -8.8037  -8.7961
    -8.7843  -8.7606  -8.7179  -8.5717  -8.1733  -8.0424  -7.9389  -7.8042
    -7.7995  -7.4174  -7.4050  -7.2500  -7.2028  -7.1913  -7.1722  -6.9419
    -6.9246  -6.5622  -6.4663  -6.1308  -6.1240  -5.8345  -5.3924  -5.2663
    -5.2110  -5.1748  -4.8889  -4.8485  -4.4591  -4.3442  -4.2882  -3.9402
    -1.4760   0.1896   0.8879   0.9791   1.0956   1.1485   1.2939   1.4444
     1.4831   1.5240   1.5826   1.7026   1.7440   1.8338   1.8752   1.8886
     1.9942   2.0316   2.1118   2.1963   2.2716   2.3088

          k =-0.1667-0.4811 0.0000 ( 59291 PWs)   bands (ev):

   -68.7191 -68.7098 -40.4069 -40.3124 -40.1410 -40.1316 -40.0781 -40.0687
   -21.0887 -20.8858 -20.6956 -20.1336 -19.7776 -19.4392 -19.2903 -19.1475
   -18.9871 -18.7516 -18.6133 -18.5181 -18.1195 -18.0646 -17.8949 -17.6968
   -12.3224 -12.0872 -12.0186 -11.8809 -11.6548 -11.6326 -11.5271 -10.9159
   -10.8640 -10.5974 -10.4976  -9.8338  -9.6678  -9.3101  -9.0852  -8.6169
    -8.5971  -8.5271  -8.3635  -8.3306  -8.1359  -8.0793  -8.0376  -8.0248
    -7.6627  -7.5979  -7.4685  -7.4491  -7.3124  -7.1449  -7.0423  -6.8196
    -6.5958  -6.3477  -6.1369  -6.1324  -5.9319  -5.9029  -5.7579  -5.7043
    -5.4260  -5.3571  -5.1620  -5.0081  -4.3981  -4.3174  -4.0510  -3.7298
    -1.4822   0.3492   0.8389   0.9257   1.0676   1.1403   1.2165   1.2858
     1.3644   1.3940   1.5557   1.7203   1.7706   1.8878   1.9141   2.0437
     2.0914   2.1167   2.1477   2.2074   2.2850   2.3150

          k = 0.5000-0.0962 0.0000 ( 59291 PWs)   bands (ev):

   -68.7191 -68.7098 -40.4068 -40.3124 -40.1410 -40.1316 -40.0781 -40.0687
   -21.0865 -20.8919 -20.6917 -20.1322 -19.7772 -19.4413 -19.2947 -19.1434
   -18.9883 -18.7530 -18.6041 -18.5229 -18.1097 -18.0783 -17.8926 -17.6965
   -12.3209 -12.0879 -12.0171 -11.8845 -11.6654 -11.6203 -11.5287 -10.9165
   -10.8619 -10.5958 -10.4998  -9.8321  -9.6681  -9.3107  -9.0847  -8.6102
    -8.5975  -8.5254  -8.3675  -8.3495  -8.1344  -8.0673  -8.0490  -8.0142
    -7.6593  -7.5983  -7.4678  -7.4501  -7.3087  -7.1461  -7.0429  -6.8183
    -6.5961  -6.3540  -6.1470  -6.1318  -5.9220  -5.9025  -5.7573  -5.7068
    -5.4269  -5.3592  -5.1448  -5.0172  -4.3817  -4.3392  -4.0481  -3.7291
    -1.4590   0.1117   0.8522   0.9821   1.0845   1.1404   1.2096   1.2839
     1.4077   1.5792   1.6835   1.7914   1.8801   1.8924   1.9323   1.9682
     2.0083   2.0963   2.1776   2.2454   2.2719   2.3302

          k =-0.3333-0.3849 0.0000 ( 59291 PWs)   bands (ev):

   -68.7191 -68.7098 -40.4068 -40.3124 -40.1410 -40.1317 -40.0781 -40.0687
   -21.0873 -20.8897 -20.6933 -20.1319 -19.7791 -19.4395 -19.2904 -19.1465
   -18.9906 -18.7513 -18.6052 -18.5226 -18.1116 -18.0758 -17.8928 -17.6966
   -12.3219 -12.0856 -12.0193 -11.8831 -11.6559 -11.6311 -11.5280 -10.9163
   -10.8619 -10.5954 -10.5002  -9.8324  -9.6682  -9.3105  -9.0856  -8.6123
    -8.5965  -8.5267  -8.3649  -8.3428  -8.1355  -8.0721  -8.0373  -8.0270
    -7.6596  -7.5971  -7.4734  -7.4448  -7.3076  -7.1461  -7.0435  -6.8239
    -6.5945  -6.3488  -6.1371  -6.1330  -5.9302  -5.9015  -5.7575  -5.7124
    -5.4268  -5.3551  -5.1456  -5.0180  -4.3836  -4.3366  -4.0480  -3.7294
    -1.4669   0.1780   0.8400   0.9701   1.0759   1.1373   1.2459   1.3169
     1.3625   1.4880   1.7050   1.7489   1.8309   1.8798   1.9261   2.0135
     2.0673   2.0797   2.1241   2.1850   2.2921   2.3160

          k = 0.5000 0.0962 0.0000 ( 59291 PWs)   bands (ev):

   -68.7191 -68.7098 -40.4068 -40.3124 -40.1410 -40.1316 -40.0781 -40.0687
   -21.0865 -20.8919 -20.6917 -20.1322 -19.7772 -19.4413 -19.2947 -19.1434
   -18.9883 -18.7530 -18.6041 -18.5229 -18.1097 -18.0783 -17.8926 -17.6965
   -12.3209 -12.0879 -12.0171 -11.8846 -11.6654 -11.6203 -11.5287 -10.9164
   -10.8619 -10.5958 -10.4999  -9.8321  -9.6681  -9.3107  -9.0847  -8.6102
    -8.5975  -8.5255  -8.3675  -8.3495  -8.1344  -8.0673  -8.0490  -8.0142
    -7.6594  -7.5982  -7.4678  -7.4502  -7.3087  -7.1461  -7.0429  -6.8183
    -6.5961  -6.3540  -6.1470  -6.1317  -5.9220  -5.9024  -5.7574  -5.7068
    -5.4270  -5.3592  -5.1448  -5.0172  -4.3817  -4.3392  -4.0481  -3.7291
    -1.4590   0.1117   0.8522   0.9821   1.0845   1.1405   1.2096   1.2839
     1.4077   1.5792   1.6835   1.7914   1.8801   1.8924   1.9323   1.9682
     2.0083   2.0963   2.1776   2.2458   2.2718   2.3304

          k =-0.3333 0.3849 0.0000 ( 59291 PWs)   bands (ev):

   -68.7191 -68.7098 -40.4068 -40.3124 -40.1410 -40.1317 -40.0781 -40.0687
   -21.0873 -20.8897 -20.6933 -20.1319 -19.7791 -19.4395 -19.2904 -19.1465
   -18.9906 -18.7513 -18.6052 -18.5226 -18.1116 -18.0758 -17.8928 -17.6966
   -12.3219 -12.0856 -12.0193 -11.8831 -11.6559 -11.6311 -11.5280 -10.9164
   -10.8619 -10.5954 -10.5002  -9.8325  -9.6682  -9.3105  -9.0856  -8.6123
    -8.5965  -8.5267  -8.3649  -8.3428  -8.1355  -8.0721  -8.0373  -8.0270
    -7.6595  -7.5971  -7.4734  -7.4448  -7.3076  -7.1460  -7.0435  -6.8240
    -6.5945  -6.3488  -6.1371  -6.1331  -5.9302  -5.9016  -5.7575  -5.7124
    -5.4267  -5.3551  -5.1456  -5.0180  -4.3837  -4.3366  -4.0479  -3.7294
    -1.4669   0.1781   0.8400   0.9701   1.0759   1.1373   1.2459   1.3169
     1.3625   1.4880   1.7050   1.7489   1.8309   1.8798   1.9261   2.0136
     2.0673   2.0797   2.1240   2.1850   2.2923   2.3159

          k =-0.1667-0.0962 0.0000 ( 59226 PWs)   bands (ev):

   -68.7191 -68.7098 -40.4068 -40.3124 -40.1410 -40.1316 -40.0781 -40.0687
   -21.2861 -20.5077 -20.3206 -20.3107 -19.9621 -19.9522 -19.7796 -18.7034
   -18.6932 -18.3464 -18.3426 -18.3281 -18.2382 -18.2374 -18.0521 -18.0438
   -12.4795 -12.4783 -12.3821 -11.5564 -11.5500 -11.3977 -11.3973 -10.9006
   -10.8976  -9.9042  -9.8998  -9.6497  -9.3488  -9.3468  -9.2039  -9.2018
    -9.0164  -9.0151  -8.8784  -8.2980  -8.2945  -7.8755  -7.8741  -7.8315
    -7.8179  -7.7451  -7.5701  -7.5443  -7.0855  -7.0528  -6.9337  -6.8630
    -6.8598  -6.8163  -6.5064  -6.5019  -6.2321  -5.3056  -5.2760  -5.1174
    -5.0397  -4.7663  -4.7593  -4.7125  -4.5738  -4.5700  -4.3150  -4.2952
    -1.4996   0.3728   0.8408   0.9790   1.0517   1.1644   1.2374   1.3065
     1.5060   1.5544   1.5907   1.6687   1.7918   1.8067   1.8700   1.9237
     2.0091   2.0427   2.0921   2.1128   2.2292   2.3058

          k =-0.0000-0.1925 0.0000 ( 59226 PWs)   bands (ev):

   -68.7191 -68.7098 -40.4068 -40.3124 -40.1410 -40.1316 -40.0781 -40.0687
   -21.2862 -20.5039 -20.3238 -20.3144 -19.9586 -19.9499 -19.7823 -18.7009
   -18.6926 -18.3700 -18.3358 -18.3262 -18.2320 -18.2277 -18.0540 -18.0459
   -12.4861 -12.4719 -12.3819 -11.5568 -11.5503 -11.4045 -11.3885 -10.9012
   -10.8984  -9.9026  -9.9015  -9.6496  -9.3527  -9.3418  -9.2040  -9.2032
    -9.0163  -9.0148  -8.8788  -8.2971  -8.2950  -7.8765  -7.8717  -7.8243
    -7.8138  -7.7465  -7.5789  -7.5562  -7.0699  -7.0520  -6.9325  -6.8638
    -6.8602  -6.8236  -6.5060  -6.5020  -6.2325  -5.2965  -5.2792  -5.1177
    -5.0394  -4.8024  -4.7447  -4.7137  -4.5681  -4.5525  -4.3148  -4.3014
    -1.5066   0.5069   0.7977   0.9516   1.0630   1.1875   1.2235   1.2671
     1.4538   1.5175   1.5235   1.6204   1.7080   1.8005   1.9377   1.9886
     2.0264   2.0474   2.1269   2.1401   2.1655   2.2926

          k = 0.5000-0.8660 0.0000 ( 59292 PWs)   bands (ev):

   -68.7191 -68.7098 -40.4069 -40.3124 -40.1410 -40.1317 -40.0781 -40.0687
   -21.0226 -21.0191 -20.4447 -20.4352 -19.3984 -19.3949 -19.3846 -19.3829
   -18.9652 -18.9625 -18.2945 -18.2940 -18.2900 -18.2888 -17.7685 -17.7597
   -12.0411 -12.0403 -12.0382 -12.0368 -11.8537 -11.8466 -11.3035 -11.3015
   -10.2103 -10.2049 -10.1086 -10.1079 -10.1017 -10.1009  -8.5326  -8.5214
    -8.5208  -8.5192  -8.5169  -8.5088  -7.8392  -7.8387  -7.8327  -7.8317
    -7.7980  -7.7918  -7.7414  -7.7147  -7.4653  -7.4607  -6.5869  -6.5806
    -6.3041  -6.2911  -6.2657  -6.2586  -6.1645  -6.1612  -5.6685  -5.6628
    -5.5199  -5.5165  -4.6765  -4.6734  -4.6656  -4.6624  -3.8505  -3.8296
    -1.4589   0.1100   0.8532   1.0026   1.0945   1.1318   1.2613   1.4278
     1.5233   1.5765   1.5922   1.7060   1.7543   1.8600   1.8894   1.9197
     1.9354   2.0612   2.1555   2.1838   2.2867   2.3148

          k =-1.0000 0.0000 0.0000 ( 59292 PWs)   bands (ev):

   -68.7191 -68.7098 -40.4069 -40.3124 -40.1410 -40.1316 -40.0781 -40.0686
   -21.0444 -20.9951 -20.4465 -20.4372 -19.4011 -19.3973 -19.3855 -19.3722
   -18.9838 -18.9448 -18.3472 -18.2830 -18.2806 -18.2573 -17.7686 -17.7610
   -12.0808 -12.0407 -12.0226 -12.0097 -11.8543 -11.8460 -11.3216 -11.2847
   -10.2143 -10.2129 -10.1057 -10.1049 -10.0999 -10.0986  -8.5705  -8.5505
    -8.5232  -8.5074  -8.4931  -8.4648  -7.8482  -7.8399  -7.8360  -7.8340
    -7.7888  -7.7871  -7.7435  -7.7230  -7.4860  -7.4417  -6.5851  -6.5802
    -6.3072  -6.2925  -6.2645  -6.2433  -6.1809  -6.1471  -5.6947  -5.6397
    -5.5384  -5.4980  -4.7601  -4.6626  -4.6409  -4.6168  -3.8471  -3.8350
    -1.4895   0.4718   0.8470   0.9228   1.0679   1.1320   1.1931   1.2500
     1.3380   1.5337   1.6221   1.6481   1.6611   1.7609   1.8528   1.9017
     2.0780   2.0836   2.1431   2.1513   2.2942   2.3240

     the Fermi energy is    -1.1969 ev

!    total energy              =   -1133.82834716 Ry

     total all-electron energy =     -6753.504050 Ry
     estimated scf accuracy    <       0.00000009 Ry
     smearing contrib. (-TS)   =      -0.00000000 Ry
     internal energy E=F+TS    =   -1133.82834716 Ry

     The total energy is F=E-TS. E is the sum of the following terms:
     one-electron contribution =   -3920.71942641 Ry
     hartree contribution      =    1988.62182350 Ry
     xc contribution           =    -186.00807267 Ry
     ewald contribution        =    1343.65310500 Ry
     DFT-D3 Dispersion         =      -0.13296658 Ry
     one-center paw contrib.   =    -359.24281000 Ry

     total magnetization       =    10.00 Bohr mag/cell
     absolute magnetization    =    10.01 Bohr mag/cell

     convergence has been achieved in  14 iterations

     Writing output data file ./mytmp/Crdimer0.675.save/
 
     init_run     :     92.62s CPU    102.95s WALL (       1 calls)
     electrons    :   2656.97s CPU   2888.31s WALL (       1 calls)

     Called by init_run:
     wfcinit      :     77.30s CPU     85.95s WALL (       1 calls)
     potinit      :      4.00s CPU      4.30s WALL (       1 calls)
     hinit0       :      2.92s CPU      3.28s WALL (       1 calls)

     Called by electrons:
     c_bands      :   1977.00s CPU   2131.43s WALL (      14 calls)
     sum_band     :    561.98s CPU    619.93s WALL (      14 calls)
     v_of_rho     :     26.38s CPU     28.42s WALL (      15 calls)
     newd         :     78.47s CPU     95.18s WALL (      15 calls)
     PAW_pot      :      9.62s CPU     10.21s WALL (      15 calls)
     mix_rho      :      7.42s CPU      7.63s WALL (      14 calls)

     Called by c_bands:
     init_us_2    :     25.64s CPU     26.46s WALL (     870 calls)
     cegterg      :   1927.76s CPU   2080.22s WALL (     420 calls)

     Called by *egterg:
     cdiaghg      :     17.80s CPU     27.03s WALL (    2642 calls)
     h_psi        :   1375.81s CPU   1504.48s WALL (    2672 calls)
     s_psi        :     76.40s CPU     77.58s WALL (    2672 calls)
     g_psi        :      5.57s CPU      5.70s WALL (    2222 calls)

     Called by h_psi:
     h_psi:calbec :     77.60s CPU     79.64s WALL (    2672 calls)
     vloc_psi     :   1197.07s CPU   1320.26s WALL (    2672 calls)
     add_vuspsi   :     85.94s CPU     88.69s WALL (    2672 calls)

     General routines
     calbec       :     96.96s CPU     99.64s WALL (    3092 calls)
     fft          :     25.44s CPU     30.60s WALL (     369 calls)
     ffts         :      0.64s CPU      0.76s WALL (      58 calls)
     fftw         :   1024.90s CPU   1163.22s WALL (  245864 calls)
     interpolate  :      2.33s CPU      2.56s WALL (      30 calls)
 
     Parallel routines
 
     PWSCF        :  45m52.71s CPU  49m56.20s WALL

 
   This run was terminated on:  18:13:49  27Mar2021            

=------------------------------------------------------------------------------=
   JOB DONE.
=------------------------------------------------------------------------------=
