
     Program PWSCF v.6.7MaX starts on 28Mar2021 at  1:47:36 

     This program is part of the open-source Quantum ESPRESSO suite
     for quantum simulation of materials; please cite
         "P. Giannozzi et al., J. Phys.:Condens. Matter 21 395502 (2009);
         "P. Giannozzi et al., J. Phys.:Condens. Matter 29 465901 (2017);
         "P. Giannozzi et al., J. Chem. Phys. 152 154105 (2020);
          URL http://www.quantum-espresso.org", 
     in publications or presentations arising from this work. More details at
     http://www.quantum-espresso.org/quote

     Parallel version (MPI), running on    16 processors

     MPI processes distributed on     1 nodes
     R & G space division:  proc/nbgrp/npool/nimage =      16
     Reading input from Crdimer0.68.scf.in

     Current dimensions of program PWSCF are:
     Max number of different atomic species (ntypx) = 10
     Max number of k-points (npk) =  40000
     Max angular momentum in pseudopotentials (lmaxx) =  3
     file N.pbe-n-kjpaw_psl.1.0.0.UPF: wavefunction(s)  2S renormalized
     file Cr.pbe-spn-kjpaw_psl.1.0.0.UPF: wavefunction(s)  3S 3P 3D renormalized
     file Cr.pbe-spn-kjpaw_psl.1.0.0.UPF: wavefunction(s)  3S 3P 3D renormalized

     --------------------------------------------
     Parameters for DFT-D3 Dispersion Correction:
     --------------------------------------------
       Reference C6 values for interpolation: 

         atom   Coordination number   C6
         B          0.000           214.36
         B          0.971           150.74
         B          1.944           106.23
         B          2.913            62.89
         B          4.586            56.06
         N          0.000            50.54
         N          0.994            44.25
         N          2.014            39.35
         N          2.990            31.16
         Cr1        0.000          1381.48
         Cr1        1.827           571.38
         Cr1       10.619           306.69
         Cr2        0.000          1381.48
         Cr2        1.827           571.38
         Cr2       10.619           306.69

       Values used:

         atom   Coordination number  R0_AB[au]  C6      C8
         B          3.335            3.039     62.89   2506.00
         B          3.344            3.039     62.89   2505.78
         B          3.335            3.039     62.89   2506.01
         B          3.336            3.039     62.89   2506.00
         B          3.336            3.039     62.89   2505.98
         B          3.336            3.039     62.89   2505.98
         N          3.134            2.478     31.22    688.70
         N          3.151            2.478     31.21    688.55
         N          3.134            2.478     31.22    688.70
         N          3.134            2.478     31.22    688.70
         N          3.136            2.478     31.22    688.68
         N          3.136            2.478     31.22    688.68
         N          3.135            2.478     31.22    688.68
         N          3.136            2.478     31.22    688.68
         N          3.134            2.478     31.22    688.70
         B          3.345            3.039     62.89   2505.75
         B          3.344            3.039     62.89   2505.78
         B          3.336            3.039     62.89   2505.98
         B          3.336            3.039     62.89   2505.98
         B          3.335            3.039     62.89   2506.00
         B          3.345            3.039     62.89   2505.75
         N          3.135            2.478     31.22    688.68
         B          3.336            3.039     62.89   2506.00
         B          3.349            3.039     62.88   2505.66
         B          3.335            3.039     62.89   2506.00
         N          3.136            2.478     31.22    688.68
         N          3.151            2.478     31.21    688.55
         N          3.135            2.478     31.22    688.68
         N          3.135            2.478     31.22    688.68
         N          3.134            2.478     31.22    688.70
         N          3.134            2.478     31.22    688.70
         B          3.335            3.039     62.89   2506.00
         Cr1        0.691            3.252   1342.89 123933.62
         Cr2        0.691            3.252   1342.89 123933.62

         Molecular C6 ( Ry / a.u.^6 ) =     78724.14


     Subspace diagonalization in iterative solution of the eigenvalue problem:
     one sub-group per band group will be used
     scalapack distributed-memory algorithm (size of sub-group:  4*  4 procs)

 
     Parallelization info
     --------------------
     sticks:   dense  smooth     PW     G-vecs:    dense   smooth      PW
     Min         706     296     80               108834    29636    4252
     Max         707     297     81               108839    29645    4263
     Sum       11311    4741   1285              1741401   474235   68095
 
     Using Slab Decomposition
 


     bravais-lattice index     =            4
     lattice parameter (alat)  =      18.9275  a.u.
     unit-cell volume          =   10553.3021 (a.u.)^3
     number of atoms/cell      =           34
     number of atomic types    =            4
     number of electrons       =       156.00
     number of Kohn-Sham states=           94
     kinetic-energy cutoff     =      48.0000  Ry
     charge density cutoff     =     457.0000  Ry
     scf convergence threshold =      1.0E-07
     mixing beta               =       0.5000
     number of iterations used =            8  plain     mixing
     Exchange-correlation= SLA  PW   PBX  PBC
                           (   1   4   3   4   0   0   0)

     celldm(1)=  18.927497  celldm(2)=   0.000000  celldm(3)=   1.797125
     celldm(4)=   0.000000  celldm(5)=   0.000000  celldm(6)=   0.000000

     crystal axes: (cart. coord. in units of alat)
               a(1) = (   1.000000   0.000000   0.000000 )  
               a(2) = (  -0.500000   0.866025   0.000000 )  
               a(3) = (   0.000000   0.000000   1.797125 )  

     reciprocal axes: (cart. coord. in units 2 pi/alat)
               b(1) = (  1.000000  0.577350  0.000000 )  
               b(2) = (  0.000000  1.154701  0.000000 )  
               b(3) = (  0.000000  0.000000  0.556444 )  


     PseudoPot. # 1 for B  read from file:
     /home/yueyi/q-e-gpu-qe-gpu-6.7/pseudo/B.pbe-n-kjpaw_psl.1.0.0.UPF
     MD5 check sum: d9c678ba5d3b2fd7b74e61139c9288d8
     Pseudo is Projector augmented-wave + core cor, Zval =  3.0
     Generated using "atomic" code by A. Dal Corso  v.5.1.2
     Shape of augmentation charge: PSQ
     Using radial grid of 1059 points,  4 beta functions with: 
                l(1) =   0
                l(2) =   0
                l(3) =   1
                l(4) =   1
     Q(r) pseudized with 0 coefficients 


     PseudoPot. # 2 for N  read from file:
     /home/yueyi/q-e-gpu-qe-gpu-6.7/pseudo/N.pbe-n-kjpaw_psl.1.0.0.UPF
     MD5 check sum: e0e4e94a9c4025c5b51bd7d8793849bd
     Pseudo is Projector augmented-wave + core cor, Zval =  5.0
     Generated using "atomic" code by A. Dal Corso  v.5.1.2
     Shape of augmentation charge: PSQ
     Using radial grid of 1085 points,  4 beta functions with: 
                l(1) =   0
                l(2) =   0
                l(3) =   1
                l(4) =   1
     Q(r) pseudized with 0 coefficients 


     PseudoPot. # 3 for Cr read from file:
     /home/yueyi/q-e-gpu-qe-gpu-6.7/pseudo/Cr.pbe-spn-kjpaw_psl.1.0.0.UPF
     MD5 check sum: 198f1a2427a48552563eee314eba32ba
     Pseudo is Projector augmented-wave + core cor, Zval = 14.0
     Generated using &quot;atomic&quot; code by A. Dal Corso  v.6.3
     Shape of augmentation charge: PSQ
     Using radial grid of 1183 points,  6 beta functions with: 
                l(1) =   0
                l(2) =   0
                l(3) =   1
                l(4) =   1
                l(5) =   2
                l(6) =   2
     Q(r) pseudized with 0 coefficients 


     PseudoPot. # 4 for Cr read from file:
     /home/yueyi/q-e-gpu-qe-gpu-6.7/pseudo/Cr.pbe-spn-kjpaw_psl.1.0.0.UPF
     MD5 check sum: 198f1a2427a48552563eee314eba32ba
     Pseudo is Projector augmented-wave + core cor, Zval = 14.0
     Generated using &quot;atomic&quot; code by A. Dal Corso  v.6.3
     Shape of augmentation charge: PSQ
     Using radial grid of 1183 points,  6 beta functions with: 
                l(1) =   0
                l(2) =   0
                l(3) =   1
                l(4) =   1
                l(5) =   2
                l(6) =   2
     Q(r) pseudized with 0 coefficients 


     atomic species   valence    mass     pseudopotential
        B              3.00    10.81100     B ( 1.00)
        N              5.00    14.00674     N ( 1.00)
        Cr1           14.00    51.99610     Cr( 1.00)
        Cr2           14.00    51.99610     Cr( 1.00)

     Starting magnetic structure 
     atomic species   magnetization
        B            0.000
        N            0.000
        Cr1          1.000
        Cr2          1.000

     No symmetry found



   Cartesian axes

     site n.     atom                  positions (alat units)
         1           B   tau(   1) = (  -0.1250000   0.2165064   0.8985623  )
         2           B   tau(   2) = (   0.3750000   0.6495191   0.8985623  )
         3           B   tau(   3) = (   0.2500000   0.0000000   0.8985623  )
         4           B   tau(   4) = (   0.7500000   0.0000000   0.8985623  )
         5           B   tau(   5) = (   0.1250000   0.2165064   0.8985623  )
         6           B   tau(   6) = (  -0.3750000   0.6495191   0.8985623  )
         7           N   tau(   7) = (   0.7500005   0.2886748   0.8985623  )
         8           N   tau(   8) = (   0.3750005   0.5051812   0.8985623  )
         9           N   tau(   9) = (   0.3750005   0.0721685   0.8985623  )
        10           N   tau(  10) = (   0.6250005   0.0721685   0.8985623  )
        11           N   tau(  11) = (   0.2500005   0.2886748   0.8985623  )
        12           N   tau(  12) = (   0.6250005   0.5051812   0.8985623  )
        13           N   tau(  13) = (   0.0000005   0.2886748   0.8985623  )
        14           N   tau(  14) = (   0.2500005   0.7216875   0.8985623  )
        15           N   tau(  15) = (  -0.2499995   0.7216875   0.8985623  )
        16           B   tau(  16) = (   0.0000000   0.4330127   0.8985623  )
        17           B   tau(  17) = (   0.1250000   0.6495191   0.8985623  )
        18           B   tau(  18) = (  -0.1250000   0.6495191   0.8985623  )
        19           B   tau(  19) = (   0.3750000   0.2165064   0.8985623  )
        20           B   tau(  20) = (   0.6250000   0.2165064   0.8985623  )
        21           B   tau(  21) = (   0.5000000   0.4330127   0.8985623  )
        22           N   tau(  22) = (   0.5000005   0.2886748   0.8985623  )
        23           B   tau(  23) = (  -0.2500000   0.4330127   0.8985623  )
        24           B   tau(  24) = (   0.2500000   0.4330127   0.8985623  )
        25           B   tau(  25) = (   0.5000000   0.0000000   0.8985623  )
        26           N   tau(  26) = (  -0.1249995   0.5051812   0.8985623  )
        27           N   tau(  27) = (   0.1250005   0.5051812   0.8985623  )
        28           N   tau(  28) = (   0.0000005   0.7216875   0.8985623  )
        29           N   tau(  29) = (   0.5000005   0.7216875   0.8985623  )
        30           N   tau(  30) = (   0.1250005   0.0721685   0.8985623  )
        31           N   tau(  31) = (   0.8750005   0.0721685   0.8985623  )
        32           B   tau(  32) = (   0.0000000   0.0000000   0.8985623  )
        33           Cr1 tau(  33) = (   0.1083335   0.5051812   1.2220447  )
        34           Cr2 tau(  34) = (   0.3916668   0.5051812   1.2220447  )

     number of k points=    15  Gaussian smearing, width (Ry)=  0.0000
                       cart. coord. in units 2pi/alat
        k(    1) = (   0.1666667   0.2886751   0.0000000), wk =   0.0740741
        k(    2) = (   0.1666667  -0.4811252   0.0000000), wk =   0.0740741
        k(    3) = (   0.1666667  -0.0962250   0.0000000), wk =   0.0740741
        k(    4) = (  -0.5000000  -0.8660254   0.0000000), wk =   0.0370370
        k(    5) = (  -0.1666667   0.2886751   0.0000000), wk =   0.0740741
        k(    6) = (   0.3333333   0.0000000   0.0000000), wk =   0.0740741
        k(    7) = (  -0.1666667  -0.4811252   0.0000000), wk =   0.0740741
        k(    8) = (   0.5000000  -0.0962250   0.0000000), wk =   0.0740741
        k(    9) = (  -0.3333333  -0.3849002   0.0000000), wk =   0.0740741
        k(   10) = (   0.5000000   0.0962250   0.0000000), wk =   0.0740741
        k(   11) = (  -0.3333333   0.3849002   0.0000000), wk =   0.0740741
        k(   12) = (  -0.1666667  -0.0962250   0.0000000), wk =   0.0740741
        k(   13) = (  -0.0000000  -0.1924501   0.0000000), wk =   0.0740741
        k(   14) = (   0.5000000  -0.8660254   0.0000000), wk =   0.0370370
        k(   15) = (  -1.0000000   0.0000000   0.0000000), wk =   0.0370370

     Dense  grid:  1741401 G-vectors     FFT dimensions: ( 135, 135, 240)

     Smooth grid:   474235 G-vectors     FFT dimensions: (  90,  90, 160)

     Estimated max dynamical RAM per process >     642.21 MB

     Estimated total dynamical RAM >      10.03 GB
     Generating pointlists ...
     new r_m :   0.0595 (alat units)  1.1269 (a.u.) for type    1
     new r_m :   0.0595 (alat units)  1.1269 (a.u.) for type    2
     new r_m :   0.1169 (alat units)  2.2122 (a.u.) for type    3
     new r_m :   0.1169 (alat units)  2.2122 (a.u.) for type    4

     Initial potential from superposition of free atoms

     starting charge  155.99382, renormalised to  156.00000

     negative rho (up, down):  6.563E-03 4.655E-04
     Starting wfcs are  148 randomized atomic wfcs
     Checking if some PAW data can be deallocated... 

     total cpu time spent up to now is       84.7 secs

     Self-consistent Calculation

     iteration #  1     ecut=    48.00 Ry     beta= 0.50
     Davidson diagonalization with overlap
     ethr =  1.00E-02,  avg # of iterations =  2.7

     negative rho (up, down):  4.770E-03 2.952E-03

     total cpu time spent up to now is      281.8 secs

     total energy              =   -1130.71839097 Ry
     estimated scf accuracy    <      11.40661895 Ry

     total magnetization       =    12.00 Bohr mag/cell
     absolute magnetization    =    12.17 Bohr mag/cell

     iteration #  2     ecut=    48.00 Ry     beta= 0.50
     Davidson diagonalization with overlap
     ethr =  7.31E-03,  avg # of iterations =  3.3

     negative rho (up, down):  1.120E-02 1.070E-02

     total cpu time spent up to now is      467.4 secs

     total energy              =   -1132.32609806 Ry
     estimated scf accuracy    <       5.24097881 Ry

     total magnetization       =     8.81 Bohr mag/cell
     absolute magnetization    =     9.42 Bohr mag/cell

     iteration #  3     ecut=    48.00 Ry     beta= 0.50
     Davidson diagonalization with overlap
     ethr =  3.36E-03,  avg # of iterations =  7.4

     negative rho (up, down):  7.670E-03 8.036E-03

     total cpu time spent up to now is      669.2 secs

     total energy              =   -1133.48899358 Ry
     estimated scf accuracy    <       1.49291067 Ry

     total magnetization       =    10.00 Bohr mag/cell
     absolute magnetization    =    10.25 Bohr mag/cell

     iteration #  4     ecut=    48.00 Ry     beta= 0.50
     Davidson diagonalization with overlap
     ethr =  9.57E-04,  avg # of iterations =  5.3

     negative rho (up, down):  6.149E-03 5.539E-03

     total cpu time spent up to now is      837.6 secs

     total energy              =   -1133.80542483 Ry
     estimated scf accuracy    <       0.24377357 Ry

     total magnetization       =    10.00 Bohr mag/cell
     absolute magnetization    =    10.10 Bohr mag/cell

     iteration #  5     ecut=    48.00 Ry     beta= 0.50
     Davidson diagonalization with overlap
     ethr =  1.56E-04,  avg # of iterations = 11.1

     negative rho (up, down):  3.835E-03 3.922E-03

     total cpu time spent up to now is     1033.2 secs

     total energy              =   -1133.79013209 Ry
     estimated scf accuracy    <       0.22077497 Ry

     total magnetization       =    10.00 Bohr mag/cell
     absolute magnetization    =    10.03 Bohr mag/cell

     iteration #  6     ecut=    48.00 Ry     beta= 0.50
     Davidson diagonalization with overlap
     ethr =  1.42E-04,  avg # of iterations =  5.4

     negative rho (up, down):  3.398E-03 3.841E-03

     total cpu time spent up to now is     1212.6 secs

     total energy              =   -1133.80501718 Ry
     estimated scf accuracy    <       0.16784621 Ry

     total magnetization       =    10.00 Bohr mag/cell
     absolute magnetization    =    10.03 Bohr mag/cell

     iteration #  7     ecut=    48.00 Ry     beta= 0.50
     Davidson diagonalization with overlap
     ethr =  1.08E-04,  avg # of iterations =  5.6

     negative rho (up, down):  3.201E-03 3.727E-03

     total cpu time spent up to now is     1387.0 secs

     total energy              =   -1133.82524680 Ry
     estimated scf accuracy    <       0.02598694 Ry

     total magnetization       =    10.00 Bohr mag/cell
     absolute magnetization    =    10.03 Bohr mag/cell

     iteration #  8     ecut=    48.00 Ry     beta= 0.50
     Davidson diagonalization with overlap
     ethr =  1.67E-05,  avg # of iterations =  5.2

     negative rho (up, down):  3.112E-03 3.728E-03

     total cpu time spent up to now is     1550.2 secs

     total energy              =   -1133.82743685 Ry
     estimated scf accuracy    <       0.00191338 Ry

     total magnetization       =    10.00 Bohr mag/cell
     absolute magnetization    =    10.02 Bohr mag/cell

     iteration #  9     ecut=    48.00 Ry     beta= 0.50
     Davidson diagonalization with overlap
     ethr =  1.23E-06,  avg # of iterations =  8.7

     negative rho (up, down):  3.094E-03 3.756E-03

     total cpu time spent up to now is     1755.7 secs

     total energy              =   -1133.82786873 Ry
     estimated scf accuracy    <       0.00025622 Ry

     total magnetization       =    10.00 Bohr mag/cell
     absolute magnetization    =    10.01 Bohr mag/cell

     iteration # 10     ecut=    48.00 Ry     beta= 0.50
     Davidson diagonalization with overlap
     ethr =  1.64E-07,  avg # of iterations =  2.9

     negative rho (up, down):  3.083E-03 3.760E-03

     total cpu time spent up to now is     1920.7 secs

     total energy              =   -1133.82792231 Ry
     estimated scf accuracy    <       0.00011145 Ry

     total magnetization       =    10.00 Bohr mag/cell
     absolute magnetization    =    10.01 Bohr mag/cell

     iteration # 11     ecut=    48.00 Ry     beta= 0.50
     Davidson diagonalization with overlap
     ethr =  7.14E-08,  avg # of iterations =  2.9

     negative rho (up, down):  3.078E-03 3.767E-03

     total cpu time spent up to now is     2077.4 secs

     total energy              =   -1133.82794765 Ry
     estimated scf accuracy    <       0.00002263 Ry

     total magnetization       =    10.00 Bohr mag/cell
     absolute magnetization    =    10.01 Bohr mag/cell

     iteration # 12     ecut=    48.00 Ry     beta= 0.50
     Davidson diagonalization with overlap
     ethr =  1.45E-08,  avg # of iterations =  4.4

     negative rho (up, down):  3.075E-03 3.770E-03

     total cpu time spent up to now is     2241.4 secs

     total energy              =   -1133.82795429 Ry
     estimated scf accuracy    <       0.00000235 Ry

     total magnetization       =    10.00 Bohr mag/cell
     absolute magnetization    =    10.01 Bohr mag/cell

     iteration # 13     ecut=    48.00 Ry     beta= 0.50
     Davidson diagonalization with overlap
     ethr =  1.51E-09,  avg # of iterations =  4.6

     negative rho (up, down):  3.073E-03 3.772E-03

     total cpu time spent up to now is     2411.6 secs

     total energy              =   -1133.82795580 Ry
     estimated scf accuracy    <       0.00000065 Ry

     total magnetization       =    10.00 Bohr mag/cell
     absolute magnetization    =    10.01 Bohr mag/cell

     iteration # 14     ecut=    48.00 Ry     beta= 0.50
     Davidson diagonalization with overlap
     ethr =  4.18E-10,  avg # of iterations =  3.8

     negative rho (up, down):  3.073E-03 3.774E-03

     total cpu time spent up to now is     2574.7 secs

     total energy              =   -1133.82795624 Ry
     estimated scf accuracy    <       0.00000013 Ry

     total magnetization       =    10.00 Bohr mag/cell
     absolute magnetization    =    10.01 Bohr mag/cell

     iteration # 15     ecut=    48.00 Ry     beta= 0.50
     Davidson diagonalization with overlap
     ethr =  8.57E-11,  avg # of iterations =  4.4

     negative rho (up, down):  3.073E-03 3.774E-03
 
     Magnetic moment per site:
     atom:    1    charge:    0.8805    magn:    0.0001    constr:    0.0000
     atom:    2    charge:    0.8800    magn:    0.0002    constr:    0.0000
     atom:    3    charge:    0.8804    magn:    0.0000    constr:    0.0000
     atom:    4    charge:    0.8802    magn:    0.0001    constr:    0.0000
     atom:    5    charge:    0.8801    magn:    0.0001    constr:    0.0000
     atom:    6    charge:    0.8807    magn:    0.0000    constr:    0.0000
     atom:    7    charge:    2.8610    magn:    0.0002    constr:    0.0000
     atom:    8    charge:    2.8609    magn:    0.0061    constr:    0.0000
     atom:    9    charge:    2.8610    magn:    0.0001    constr:    0.0000
     atom:   10    charge:    2.8610    magn:    0.0002    constr:    0.0000
     atom:   11    charge:    2.8606    magn:    0.0016    constr:    0.0000
     atom:   12    charge:    2.8609    magn:    0.0011    constr:    0.0000
     atom:   13    charge:    2.8598    magn:    0.0016    constr:    0.0000
     atom:   14    charge:    2.8596    magn:    0.0018    constr:    0.0000
     atom:   15    charge:    2.8600    magn:    0.0001    constr:    0.0000
     atom:   16    charge:    0.8804    magn:   -0.0000    constr:    0.0000
     atom:   17    charge:    0.8797    magn:    0.0002    constr:    0.0000
     atom:   18    charge:    0.8804    magn:    0.0000    constr:    0.0000
     atom:   19    charge:    0.8796    magn:    0.0001    constr:    0.0000
     atom:   20    charge:    0.8799    magn:    0.0001    constr:    0.0000
     atom:   21    charge:    0.8801    magn:   -0.0000    constr:    0.0000
     atom:   22    charge:    2.8611    magn:    0.0016    constr:    0.0000
     atom:   23    charge:    0.8803    magn:    0.0001    constr:    0.0000
     atom:   24    charge:    0.8789    magn:    0.0003    constr:    0.0000
     atom:   25    charge:    0.8800    magn:    0.0001    constr:    0.0000
     atom:   26    charge:    2.8598    magn:    0.0011    constr:    0.0000
     atom:   27    charge:    2.8598    magn:    0.0061    constr:    0.0000
     atom:   28    charge:    2.8598    magn:    0.0014    constr:    0.0000
     atom:   29    charge:    2.8596    magn:    0.0014    constr:    0.0000
     atom:   30    charge:    2.8597    magn:    0.0001    constr:    0.0000
     atom:   31    charge:    2.8596    magn:    0.0002    constr:    0.0000
     atom:   32    charge:    0.8802    magn:    0.0001    constr:    0.0000
     atom:   33    charge:   12.5159    magn:    4.2397    constr:    0.0000
     atom:   34    charge:   12.5158    magn:    4.2397    constr:    0.0000

     total cpu time spent up to now is     2754.1 secs

     End of self-consistent calculation

 ------ SPIN UP ------------


          k = 0.1667 0.2887 0.0000 ( 59267 PWs)   bands (ev):

   -72.9489 -72.9409 -44.5066 -44.4269 -44.3451 -44.3373 -44.3177 -44.3098
   -21.1941 -20.6083 -20.6037 -20.0497 -20.0470 -19.5360 -19.5310 -19.0476
   -18.6437 -18.6404 -18.4037 -18.4018 -18.1418 -18.0338 -18.0291 -17.7985
   -12.4318 -12.1521 -12.1510 -11.7690 -11.7664 -11.6066 -11.1404 -11.1369
   -10.3397 -10.3161 -10.0654 -10.0638  -9.5375  -9.5363  -8.7735  -8.7724
    -8.7692  -8.7154  -8.7101  -8.5451  -8.1462  -7.9824  -7.9589  -7.7776
    -7.7763  -7.3865  -7.3856  -7.2151  -7.2014  -7.1574  -7.1554  -6.9075
    -6.9067  -6.5010  -6.4833  -6.1028  -6.1018  -5.8108  -5.3674  -5.2315
    -5.2151  -5.1493  -4.8520  -4.8453  -4.4450  -4.2982  -4.2870  -3.9227
    -2.9621  -2.0984  -2.0875  -1.9054  -1.7007  -1.6479  -1.5352  -1.5307
    -1.4365  -1.4317  -1.3923  -0.8010   0.6163   0.8437   0.9824   1.2396
     1.3273   1.5177   1.5643   1.6243   1.6594   1.7634

          k = 0.1667-0.4811 0.0000 ( 59291 PWs)   bands (ev):

   -72.9489 -72.9409 -44.5066 -44.4269 -44.3451 -44.3373 -44.3177 -44.3098
   -21.0629 -20.8613 -20.6703 -20.1083 -19.7527 -19.4145 -19.2656 -19.1226
   -18.9626 -18.7272 -18.5873 -18.4945 -18.0940 -18.0419 -17.8708 -17.6728
   -12.2957 -12.0606 -11.9923 -11.8553 -11.6286 -11.6063 -11.5013 -10.8901
   -10.8377 -10.5711 -10.4725  -9.8079  -9.6420  -9.2846  -9.0593  -8.5969
    -8.5711  -8.5015  -8.3381  -8.3103  -8.1102  -8.0589  -8.0118  -7.9991
    -7.6365  -7.5722  -7.4427  -7.4239  -7.2924  -7.1199  -7.0168  -6.7999
    -6.5705  -6.3280  -6.1176  -6.1069  -5.9124  -5.8777  -5.7325  -5.6847
    -5.4008  -5.3377  -5.1431  -4.9881  -4.3795  -4.2973  -4.0322  -3.7111
    -2.9595  -2.0986  -2.0872  -1.9023  -1.6999  -1.6476  -1.5366  -1.5323
    -1.4364  -1.4320  -1.3926  -0.8043   0.5324   0.8449   1.0208   1.1350
     1.2545   1.3054   1.4320   1.8698   1.9452   2.1278

          k = 0.1667-0.0962 0.0000 ( 59226 PWs)   bands (ev):

   -72.9489 -72.9409 -44.5066 -44.4269 -44.3451 -44.3373 -44.3177 -44.3098
   -21.2607 -20.4820 -20.2953 -20.2866 -19.9361 -19.9277 -19.7553 -18.6778
   -18.6689 -18.3214 -18.3182 -18.3038 -18.2139 -18.2131 -18.0278 -18.0203
   -12.4529 -12.4520 -12.3558 -11.5298 -11.5243 -11.3715 -11.3712 -10.8746
   -10.8720  -9.8780  -9.8740  -9.6241  -9.3225  -9.3209  -9.1782  -9.1765
    -8.9905  -8.9893  -8.8582  -8.2723  -8.2692  -7.8496  -7.8485  -7.8109
    -7.7936  -7.7195  -7.5511  -7.5232  -7.0672  -7.0313  -6.9079  -6.8374
    -6.8346  -6.7960  -6.4808  -6.4767  -6.2066  -5.2884  -5.2553  -5.0923
    -5.0143  -4.7490  -4.7408  -4.6914  -4.5544  -4.5503  -4.2966  -4.2752
    -2.9648  -2.0982  -2.0877  -1.9085  -1.7023  -1.6481  -1.5340  -1.5291
    -1.4364  -1.4316  -1.3920  -0.7975   0.7217   0.8157   0.9497   1.2559
     1.3124   1.3820   1.6097   1.6391   1.7064   1.9271

          k =-0.5000-0.8660 0.0000 ( 59292 PWs)   bands (ev):

   -72.9489 -72.9409 -44.5066 -44.4269 -44.3451 -44.3373 -44.3176 -44.3098
   -20.9979 -20.9930 -20.4192 -20.4109 -19.3723 -19.3693 -19.3602 -19.3589
   -18.9407 -18.9379 -18.2704 -18.2700 -18.2651 -18.2641 -17.7440 -17.7361
   -12.0157 -12.0149 -12.0106 -12.0097 -11.8268 -11.8208 -11.2784 -11.2751
   -10.1840 -10.1792 -10.0825 -10.0818 -10.0765 -10.0757  -8.5141  -8.4960
    -8.4955  -8.4933  -8.4906  -8.4863  -7.8130  -7.8127  -7.8074  -7.8065
    -7.7724  -7.7668  -7.7225  -7.6934  -7.4403  -7.4345  -6.5609  -6.5553
    -6.2891  -6.2723  -6.2431  -6.2367  -6.1399  -6.1360  -5.6510  -5.6408
    -5.4948  -5.4907  -4.6598  -4.6570  -4.6442  -4.6404  -3.8325  -3.8096
    -2.9475  -2.0975  -2.0850  -1.9034  -1.7006  -1.6474  -1.5374  -1.5334
    -1.4403  -1.4375  -1.3985  -0.9207   0.7007   1.0360   1.1188   1.1699
     1.3526   1.5880   1.6338   1.6607   1.7301   1.7414

          k =-0.1667 0.2887 0.0000 ( 59267 PWs)   bands (ev):

   -72.9489 -72.9409 -44.5066 -44.4269 -44.3451 -44.3373 -44.3177 -44.3098
   -21.1941 -20.6083 -20.6037 -20.0497 -20.0470 -19.5360 -19.5310 -19.0476
   -18.6437 -18.6403 -18.4037 -18.4018 -18.1418 -18.0338 -18.0291 -17.7985
   -12.4318 -12.1521 -12.1510 -11.7690 -11.7664 -11.6067 -11.1404 -11.1369
   -10.3397 -10.3160 -10.0654 -10.0638  -9.5375  -9.5363  -8.7734  -8.7723
    -8.7692  -8.7155  -8.7101  -8.5451  -8.1462  -7.9824  -7.9589  -7.7776
    -7.7762  -7.3865  -7.3856  -7.2151  -7.2014  -7.1573  -7.1553  -6.9076
    -6.9067  -6.5009  -6.4833  -6.1028  -6.1018  -5.8108  -5.3675  -5.2315
    -5.2151  -5.1492  -4.8520  -4.8453  -4.4450  -4.2982  -4.2870  -3.9226
    -2.9621  -2.0984  -2.0875  -1.9054  -1.7007  -1.6479  -1.5352  -1.5307
    -1.4365  -1.4317  -1.3923  -0.8010   0.6163   0.8437   0.9824   1.2397
     1.3273   1.5177   1.5643   1.6243   1.6594   1.7634

          k = 0.3333 0.0000 0.0000 ( 59267 PWs)   bands (ev):

   -72.9489 -72.9409 -44.5066 -44.4269 -44.3451 -44.3373 -44.3176 -44.3098
   -21.1939 -20.6277 -20.5842 -20.0566 -20.0390 -19.5559 -19.5124 -19.0490
   -18.6583 -18.6223 -18.4124 -18.3941 -18.1390 -18.0528 -18.0146 -17.7979
   -12.4312 -12.1576 -12.1458 -11.7760 -11.7609 -11.6055 -11.1534 -11.1239
   -10.3396 -10.3155 -10.0764 -10.0534  -9.5421  -9.5307  -8.7776  -8.7734
    -8.7619  -8.7321  -8.6946  -8.5458  -8.1474  -8.0229  -7.9181  -7.7784
    -7.7741  -7.3916  -7.3801  -7.2317  -7.1812  -7.1648  -7.1476  -6.9152
    -6.9001  -6.5431  -6.4457  -6.1051  -6.0989  -5.8150  -5.3674  -5.2485
    -5.1909  -5.1495  -4.8702  -4.8280  -4.4403  -4.3261  -4.2682  -3.9212
    -2.9542  -2.0976  -2.0856  -1.9062  -1.7020  -1.6476  -1.5350  -1.5318
    -1.4388  -1.4356  -1.3961  -0.8819   0.7379   0.9825   1.0863   1.2555
     1.3455   1.5189   1.5741   1.5862   1.6221   1.8001

          k =-0.1667-0.4811 0.0000 ( 59291 PWs)   bands (ev):

   -72.9489 -72.9409 -44.5066 -44.4269 -44.3451 -44.3373 -44.3177 -44.3098
   -21.0629 -20.8613 -20.6703 -20.1083 -19.7527 -19.4145 -19.2656 -19.1226
   -18.9626 -18.7272 -18.5873 -18.4945 -18.0940 -18.0419 -17.8708 -17.6728
   -12.2957 -12.0606 -11.9923 -11.8553 -11.6286 -11.6063 -11.5013 -10.8901
   -10.8377 -10.5711 -10.4725  -9.8078  -9.6420  -9.2847  -9.0593  -8.5969
    -8.5711  -8.5015  -8.3380  -8.3103  -8.1102  -8.0589  -8.0119  -7.9991
    -7.6365  -7.5722  -7.4427  -7.4239  -7.2924  -7.1198  -7.0167  -6.7999
    -6.5705  -6.3280  -6.1176  -6.1069  -5.9124  -5.8777  -5.7325  -5.6847
    -5.4009  -5.3377  -5.1431  -4.9881  -4.3795  -4.2973  -4.0322  -3.7111
    -2.9595  -2.0986  -2.0872  -1.9023  -1.6999  -1.6476  -1.5366  -1.5323
    -1.4364  -1.4320  -1.3926  -0.8043   0.5324   0.8449   1.0208   1.1350
     1.2545   1.3053   1.4321   1.8698   1.9452   2.1278

          k = 0.5000-0.0962 0.0000 ( 59291 PWs)   bands (ev):

   -72.9489 -72.9409 -44.5066 -44.4269 -44.3451 -44.3373 -44.3177 -44.3098
   -21.0611 -20.8660 -20.6672 -20.1073 -19.7524 -19.4162 -19.2690 -19.1193
   -18.9635 -18.7284 -18.5798 -18.4985 -18.0855 -18.0536 -17.8688 -17.6725
   -12.2946 -12.0610 -11.9912 -11.8580 -11.6371 -11.5965 -11.5025 -10.8906
   -10.8362 -10.5699 -10.4741  -9.8065  -9.6422  -9.2851  -9.0589  -8.5900
    -8.5715  -8.5002  -8.3413  -8.3292  -8.1090  -8.0469  -8.0216  -7.9901
    -7.6338  -7.5725  -7.4422  -7.4246  -7.2888  -7.1208  -7.0173  -6.7985
    -6.5708  -6.3349  -6.1271  -6.1065  -5.9019  -5.8774  -5.7320  -5.6876
    -5.4016  -5.3397  -5.1257  -4.9975  -4.3632  -4.3197  -4.0289  -3.7102
    -2.9475  -2.0975  -2.0850  -1.9034  -1.7010  -1.6473  -1.5374  -1.5334
    -1.4403  -1.4375  -1.3985  -0.9205   0.6875   1.0354   1.1126   1.1977
     1.2869   1.3404   1.5245   1.7446   1.8365   1.9501

          k =-0.3333-0.3849 0.0000 ( 59291 PWs)   bands (ev):

   -72.9489 -72.9409 -44.5066 -44.4269 -44.3451 -44.3373 -44.3177 -44.3098
   -21.0618 -20.8643 -20.6684 -20.1070 -19.7539 -19.4147 -19.2657 -19.1218
   -18.9654 -18.7270 -18.5807 -18.4982 -18.0871 -18.0515 -17.8689 -17.6726
   -12.2953 -12.0594 -11.9928 -11.8569 -11.6294 -11.6052 -11.5021 -10.8904
   -10.8362 -10.5696 -10.4744  -9.8068  -9.6423  -9.2850  -9.0596  -8.5923
    -8.5706  -8.5013  -8.3391  -8.3225  -8.1098  -8.0517  -8.0117  -8.0009
    -7.6340  -7.5717  -7.4469  -7.4202  -7.2877  -7.1208  -7.0177  -6.8042
    -6.5695  -6.3293  -6.1171  -6.1079  -5.9108  -5.8766  -5.7321  -5.6927
    -5.4015  -5.3356  -5.1262  -4.9987  -4.3648  -4.3173  -4.0287  -3.7106
    -2.9516  -2.0978  -2.0860  -1.9030  -1.7004  -1.6475  -1.5368  -1.5334
    -1.4390  -1.4356  -1.3964  -0.8851   0.6345   1.0007   1.0773   1.1505
     1.2719   1.3919   1.4125   1.8120   1.8951   1.9446

          k = 0.5000 0.0962 0.0000 ( 59291 PWs)   bands (ev):

   -72.9489 -72.9409 -44.5066 -44.4269 -44.3451 -44.3373 -44.3177 -44.3098
   -21.0611 -20.8660 -20.6672 -20.1073 -19.7524 -19.4162 -19.2690 -19.1193
   -18.9635 -18.7284 -18.5798 -18.4985 -18.0855 -18.0536 -17.8688 -17.6725
   -12.2946 -12.0611 -11.9912 -11.8580 -11.6371 -11.5965 -11.5025 -10.8905
   -10.8362 -10.5699 -10.4742  -9.8065  -9.6422  -9.2851  -9.0589  -8.5900
    -8.5715  -8.5002  -8.3413  -8.3292  -8.1090  -8.0469  -8.0216  -7.9901
    -7.6339  -7.5725  -7.4422  -7.4247  -7.2888  -7.1208  -7.0173  -6.7985
    -6.5707  -6.3349  -6.1271  -6.1064  -5.9019  -5.8774  -5.7320  -5.6876
    -5.4016  -5.3397  -5.1256  -4.9975  -4.3632  -4.3197  -4.0289  -3.7102
    -2.9475  -2.0975  -2.0850  -1.9034  -1.7010  -1.6473  -1.5374  -1.5334
    -1.4403  -1.4375  -1.3985  -0.9205   0.6875   1.0354   1.1126   1.1977
     1.2869   1.3404   1.5245   1.7446   1.8364   1.9501

          k =-0.3333 0.3849 0.0000 ( 59291 PWs)   bands (ev):

   -72.9489 -72.9409 -44.5066 -44.4269 -44.3451 -44.3373 -44.3177 -44.3098
   -21.0618 -20.8643 -20.6684 -20.1070 -19.7539 -19.4147 -19.2657 -19.1218
   -18.9654 -18.7270 -18.5807 -18.4982 -18.0871 -18.0515 -17.8689 -17.6726
   -12.2953 -12.0594 -11.9928 -11.8569 -11.6294 -11.6052 -11.5021 -10.8905
   -10.8361 -10.5695 -10.4744  -9.8068  -9.6422  -9.2849  -9.0596  -8.5923
    -8.5707  -8.5013  -8.3392  -8.3225  -8.1099  -8.0517  -8.0116  -8.0009
    -7.6339  -7.5716  -7.4469  -7.4201  -7.2877  -7.1207  -7.0178  -6.8042
    -6.5695  -6.3292  -6.1171  -6.1079  -5.9108  -5.8767  -5.7321  -5.6927
    -5.4014  -5.3355  -5.1262  -4.9987  -4.3648  -4.3173  -4.0287  -3.7105
    -2.9516  -2.0978  -2.0860  -1.9030  -1.7004  -1.6475  -1.5368  -1.5334
    -1.4390  -1.4356  -1.3964  -0.8851   0.6345   1.0007   1.0773   1.1505
     1.2719   1.3919   1.4125   1.8119   1.8951   1.9446

          k =-0.1667-0.0962 0.0000 ( 59226 PWs)   bands (ev):

   -72.9489 -72.9409 -44.5066 -44.4269 -44.3451 -44.3373 -44.3177 -44.3098
   -21.2607 -20.4820 -20.2953 -20.2866 -19.9361 -19.9277 -19.7553 -18.6778
   -18.6689 -18.3215 -18.3183 -18.3038 -18.2139 -18.2131 -18.0278 -18.0203
   -12.4529 -12.4520 -12.3558 -11.5298 -11.5243 -11.3715 -11.3713 -10.8746
   -10.8720  -9.8780  -9.8740  -9.6241  -9.3225  -9.3209  -9.1782  -9.1765
    -8.9905  -8.9893  -8.8582  -8.2723  -8.2693  -7.8496  -7.8484  -7.8109
    -7.7936  -7.7195  -7.5511  -7.5232  -7.0672  -7.0313  -6.9079  -6.8373
    -6.8346  -6.7960  -6.4807  -6.4767  -6.2067  -5.2884  -5.2553  -5.0923
    -5.0144  -4.7490  -4.7407  -4.6914  -4.5544  -4.5502  -4.2966  -4.2752
    -2.9648  -2.0982  -2.0877  -1.9085  -1.7023  -1.6481  -1.5340  -1.5291
    -1.4364  -1.4316  -1.3920  -0.7975   0.7217   0.8157   0.9497   1.2559
     1.3124   1.3821   1.6097   1.6391   1.7064   1.9271

          k =-0.0000-0.1925 0.0000 ( 59226 PWs)   bands (ev):

   -72.9489 -72.9409 -44.5066 -44.4269 -44.3451 -44.3373 -44.3176 -44.3098
   -21.2608 -20.4789 -20.2982 -20.2891 -19.9338 -19.9254 -19.7574 -18.6762
   -18.6680 -18.3416 -18.3124 -18.3021 -18.2088 -18.2047 -18.0298 -18.0217
   -12.4585 -12.4466 -12.3556 -11.5304 -11.5242 -11.3775 -11.3638 -10.8752
   -10.8724  -9.8766  -9.8754  -9.6240  -9.3261  -9.3165  -9.1783  -9.1776
    -8.9905  -8.9890  -8.8585  -8.2716  -8.2696  -7.8507  -7.8463  -7.8013
    -7.7916  -7.7207  -7.5605  -7.5344  -7.0509  -7.0309  -6.9070  -6.8382
    -6.8347  -6.8035  -6.4805  -6.4765  -6.2070  -5.2787  -5.2593  -5.0924
    -5.0142  -4.7842  -4.7252  -4.6946  -4.5483  -4.5323  -4.2961  -4.2823
    -2.9687  -2.0986  -2.0886  -1.9080  -1.7016  -1.6482  -1.5344  -1.5285
    -1.4353  -1.4296  -1.3902  -0.7503   0.6262   0.7563   0.9317   1.2396
     1.2757   1.4348   1.6153   1.6400   1.6760   2.0477

          k = 0.5000-0.8660 0.0000 ( 59292 PWs)   bands (ev):

   -72.9489 -72.9409 -44.5066 -44.4269 -44.3451 -44.3373 -44.3176 -44.3098
   -20.9979 -20.9929 -20.4192 -20.4109 -19.3723 -19.3693 -19.3602 -19.3589
   -18.9408 -18.9379 -18.2705 -18.2700 -18.2651 -18.2641 -17.7440 -17.7361
   -12.0157 -12.0150 -12.0106 -12.0096 -11.8268 -11.8208 -11.2784 -11.2750
   -10.1840 -10.1793 -10.0825 -10.0818 -10.0764 -10.0758  -8.5141  -8.4960
    -8.4955  -8.4932  -8.4905  -8.4863  -7.8130  -7.8126  -7.8074  -7.8064
    -7.7724  -7.7669  -7.7225  -7.6934  -7.4404  -7.4346  -6.5609  -6.5552
    -6.2891  -6.2724  -6.2431  -6.2367  -6.1399  -6.1359  -5.6510  -5.6408
    -5.4949  -5.4908  -4.6598  -4.6569  -4.6441  -4.6404  -3.8325  -3.8096
    -2.9475  -2.0975  -2.0850  -1.9034  -1.7006  -1.6474  -1.5374  -1.5334
    -1.4403  -1.4375  -1.3985  -0.9207   0.7006   1.0360   1.1188   1.1699
     1.3526   1.5880   1.6337   1.6607   1.7301   1.7414

          k =-1.0000 0.0000 0.0000 ( 59292 PWs)   bands (ev):

   -72.9489 -72.9409 -44.5066 -44.4269 -44.3451 -44.3373 -44.3177 -44.3098
   -21.0164 -20.9727 -20.4210 -20.4120 -19.3748 -19.3713 -19.3621 -19.3489
   -18.9576 -18.9218 -18.3173 -18.2597 -18.2577 -18.2356 -17.7445 -17.7368
   -12.0489 -12.0143 -11.9988 -11.9871 -11.8278 -11.8199 -11.2932 -11.2611
   -10.1870 -10.1854 -10.0807 -10.0794 -10.0751 -10.0736  -8.5510  -8.5212
    -8.4970  -8.4828  -8.4702  -8.4439  -7.8207  -7.8128  -7.8102  -7.8084
    -7.7649  -7.7635  -7.7246  -7.7012  -7.4578  -7.4186  -6.5596  -6.5547
    -6.2905  -6.2732  -6.2441  -6.2214  -6.1538  -6.1238  -5.6759  -5.6194
    -5.5110  -5.4747  -4.7425  -4.6431  -4.6209  -4.5964  -3.8283  -3.8164
    -2.9635  -2.0990  -2.0875  -1.9019  -1.6997  -1.6477  -1.5367  -1.5316
    -1.4352  -1.4302  -1.3909  -0.7578   0.4920   0.7404   1.0087   1.1525
     1.1863   1.5983   1.6172   1.6622   1.6788   1.9378

 ------ SPIN DOWN ----------


          k = 0.1667 0.2887 0.0000 ( 59267 PWs)   bands (ev):

   -68.7500 -68.7407 -40.4455 -40.3511 -40.1614 -40.1521 -40.1106 -40.1013
   -21.1915 -20.6065 -20.6003 -20.0469 -20.0445 -19.5342 -19.5275 -19.0448
   -18.6413 -18.6365 -18.4007 -18.3989 -18.1384 -18.0314 -18.0260 -17.7954
   -12.4305 -12.1506 -12.1496 -11.7678 -11.7649 -11.6053 -11.1391 -11.1350
   -10.3379 -10.3145 -10.0641 -10.0615  -9.5361  -9.5345  -8.7714  -8.7703
    -8.7576  -8.7144  -8.7080  -8.5436  -8.1446  -7.9668  -7.9532  -7.7758
    -7.7746  -7.3844  -7.3834  -7.2025  -7.1928  -7.1560  -7.1533  -6.9058
    -6.9050  -6.4865  -6.4781  -6.1009  -6.0999  -5.8002  -5.3652  -5.2150
    -5.2084  -5.1474  -4.8418  -4.8365  -4.4336  -4.2871  -4.2809  -3.9128
    -1.5315   0.3324   0.8695   0.9499   1.0821   1.2271   1.2991   1.3805
     1.4408   1.4949   1.5862   1.6057   1.6277   1.7165   1.8356   1.9796
     2.0137   2.0255   2.0817   2.1044   2.2505   2.2736

          k = 0.1667-0.4811 0.0000 ( 59291 PWs)   bands (ev):

   -68.7500 -68.7407 -40.4455 -40.3511 -40.1614 -40.1521 -40.1107 -40.1013
   -21.0601 -20.8590 -20.6676 -20.1056 -19.7500 -19.4118 -19.2628 -19.1197
   -18.9598 -18.7244 -18.5834 -18.4922 -18.0898 -18.0401 -17.8676 -17.6696
   -12.2943 -12.0592 -11.9910 -11.8540 -11.6275 -11.6046 -11.4999 -10.8885
   -10.8359 -10.5695 -10.4709  -9.8059  -9.6404  -9.2827  -9.0576  -8.5832
    -8.5694  -8.4995  -8.3366  -8.3024  -8.1085  -8.0481  -8.0104  -7.9973
    -7.6345  -7.5705  -7.4410  -7.4223  -7.2812  -7.1178  -7.0151  -6.7895
    -6.5682  -6.3181  -6.1067  -6.1050  -5.9020  -5.8755  -5.7305  -5.6749
    -5.3989  -5.3281  -5.1281  -4.9816  -4.3651  -4.2930  -4.0222  -3.7012
    -1.5231   0.3216   0.8639   0.9266   1.1002   1.1269   1.2274   1.2913
     1.3663   1.3813   1.5455   1.7098   1.7649   1.8657   1.9192   2.0296
     2.0704   2.1017   2.1337   2.2098   2.2541   2.2949

          k = 0.1667-0.0962 0.0000 ( 59226 PWs)   bands (ev):

   -68.7500 -68.7407 -40.4455 -40.3511 -40.1614 -40.1520 -40.1106 -40.1012
   -21.2582 -20.4791 -20.2924 -20.2845 -19.9327 -19.9255 -19.7529 -18.6740
   -18.6665 -18.3179 -18.3154 -18.3012 -18.2106 -18.2100 -18.0248 -18.0179
   -12.4516 -12.4508 -12.3545 -11.5281 -11.5232 -11.3700 -11.3697 -10.8728
   -10.8705  -9.8762  -9.8727  -9.6223  -9.3209  -9.3194  -9.1763  -9.1747
    -8.9889  -8.9878  -8.8468  -8.2701  -8.2674  -7.8478  -7.8468  -7.7992
    -7.7894  -7.7178  -7.5392  -7.5171  -7.0508  -7.0249  -6.9060  -6.8354
    -6.8331  -6.7887  -6.4787  -6.4751  -6.2048  -5.2716  -5.2484  -5.0902
    -5.0123  -4.7349  -4.7300  -4.6841  -4.5447  -4.5415  -4.2855  -4.2689
    -1.5398   0.3456   0.8681   0.9794   1.0329   1.1839   1.2511   1.3132
     1.5048   1.5676   1.5943   1.6729   1.7736   1.8088   1.8615   1.9165
     1.9991   2.0117   2.0674   2.1006   2.2054   2.2741

          k =-0.5000-0.8660 0.0000 ( 59292 PWs)   bands (ev):

   -68.7500 -68.7407 -40.4455 -40.3511 -40.1614 -40.1521 -40.1106 -40.1013
   -20.9962 -20.9894 -20.4163 -20.4088 -19.3685 -19.3659 -19.3582 -19.3568
   -18.9390 -18.9341 -18.2689 -18.2685 -18.2605 -18.2597 -17.7405 -17.7335
   -12.0149 -12.0141 -12.0087 -12.0077 -11.8253 -11.8199 -11.2772 -11.2732
   -10.1821 -10.1781 -10.0804 -10.0799 -10.0749 -10.0742  -8.4970  -8.4946
    -8.4945  -8.4899  -8.4883  -8.4813  -7.8109  -7.8107  -7.8060  -7.8052
    -7.7700  -7.7648  -7.7097  -7.6872  -7.4393  -7.4323  -6.5586  -6.5538
    -6.2685  -6.2583  -6.2380  -6.2319  -6.1383  -6.1334  -5.6375  -5.6355
    -5.4936  -5.4880  -4.6438  -4.6407  -4.6395  -4.6372  -3.8200  -3.8031
    -1.5003   0.0849   0.8828   0.9928   1.0977   1.1346   1.2597   1.4568
     1.5424   1.5989   1.6127   1.7004   1.7452   1.8440   1.8696   1.8986
     1.9041   2.0285   2.1441   2.1771   2.2539   2.2835

          k =-0.1667 0.2887 0.0000 ( 59267 PWs)   bands (ev):

   -68.7500 -68.7407 -40.4455 -40.3511 -40.1614 -40.1521 -40.1106 -40.1013
   -21.1915 -20.6065 -20.6003 -20.0469 -20.0445 -19.5342 -19.5275 -19.0448
   -18.6413 -18.6365 -18.4007 -18.3989 -18.1384 -18.0314 -18.0259 -17.7954
   -12.4304 -12.1506 -12.1496 -11.7678 -11.7649 -11.6054 -11.1391 -11.1350
   -10.3380 -10.3145 -10.0642 -10.0615  -9.5361  -9.5345  -8.7714  -8.7703
    -8.7576  -8.7144  -8.7080  -8.5435  -8.1446  -7.9668  -7.9532  -7.7758
    -7.7746  -7.3844  -7.3834  -7.2025  -7.1928  -7.1560  -7.1532  -6.9059
    -6.9050  -6.4865  -6.4781  -6.1009  -6.0999  -5.8002  -5.3653  -5.2150
    -5.2084  -5.1473  -4.8418  -4.8365  -4.4337  -4.2871  -4.2809  -3.9128
    -1.5315   0.3324   0.8695   0.9499   1.0821   1.2271   1.2991   1.3805
     1.4408   1.4949   1.5862   1.6057   1.6277   1.7165   1.8356   1.9796
     2.0137   2.0255   2.0817   2.1044   2.2505   2.2736

          k = 0.3333 0.0000 0.0000 ( 59267 PWs)   bands (ev):

   -68.7500 -68.7407 -40.4455 -40.3511 -40.1614 -40.1520 -40.1106 -40.1013
   -21.1913 -20.6238 -20.5829 -20.0535 -20.0369 -19.5516 -19.5111 -19.0460
   -18.6538 -18.6211 -18.4088 -18.3916 -18.1361 -18.0479 -18.0132 -17.7949
   -12.4299 -12.1560 -12.1445 -11.7744 -11.7597 -11.6043 -11.1512 -11.1228
   -10.3379 -10.3140 -10.0739 -10.0523  -9.5403  -9.5295  -8.7752  -8.7679
    -8.7545  -8.7296  -8.6939  -8.5441  -8.1457  -8.0039  -7.9159  -7.7766
    -7.7726  -7.3890  -7.3785  -7.2163  -7.1765  -7.1626  -7.1464  -6.9130
    -6.8987  -6.5246  -6.4433  -6.1031  -6.0973  -5.8033  -5.3652  -5.2323
    -5.1860  -5.1475  -4.8563  -4.8227  -4.4300  -4.3107  -4.2637  -3.9119
    -1.5168   0.1639   0.9099   0.9833   1.0729   1.1610   1.3176   1.4544
     1.5022   1.5519   1.6087   1.6982   1.7343   1.8114   1.8414   1.8732
     1.9740   1.9995   2.0817   2.1717   2.2479   2.2747

          k =-0.1667-0.4811 0.0000 ( 59291 PWs)   bands (ev):

   -68.7500 -68.7407 -40.4455 -40.3511 -40.1614 -40.1521 -40.1107 -40.1013
   -21.0601 -20.8590 -20.6676 -20.1056 -19.7500 -19.4118 -19.2628 -19.1197
   -18.9598 -18.7244 -18.5834 -18.4922 -18.0898 -18.0401 -17.8676 -17.6696
   -12.2944 -12.0592 -11.9910 -11.8540 -11.6274 -11.6046 -11.4999 -10.8885
   -10.8360 -10.5695 -10.4709  -9.8059  -9.6404  -9.2828  -9.0577  -8.5832
    -8.5694  -8.4995  -8.3365  -8.3024  -8.1085  -8.0481  -8.0104  -7.9974
    -7.6345  -7.5705  -7.4409  -7.4223  -7.2812  -7.1178  -7.0151  -6.7895
    -6.5683  -6.3181  -6.1068  -6.1050  -5.9020  -5.8754  -5.7305  -5.6749
    -5.3990  -5.3281  -5.1281  -4.9816  -4.3651  -4.2930  -4.0222  -3.7012
    -1.5231   0.3216   0.8639   0.9266   1.1002   1.1269   1.2274   1.2912
     1.3663   1.3813   1.5455   1.7098   1.7649   1.8657   1.9192   2.0296
     2.0704   2.1017   2.1337   2.2097   2.2540   2.2949

          k = 0.5000-0.0962 0.0000 ( 59291 PWs)   bands (ev):

   -68.7500 -68.7407 -40.4455 -40.3511 -40.1614 -40.1520 -40.1106 -40.1013
   -21.0586 -20.8632 -20.6649 -20.1047 -19.7497 -19.4132 -19.2658 -19.1169
   -18.9606 -18.7254 -18.5771 -18.4955 -18.0826 -18.0500 -17.8660 -17.6693
   -12.2933 -12.0596 -11.9900 -11.8565 -11.6354 -11.5956 -11.5010 -10.8889
   -10.8346 -10.5684 -10.4724  -9.8047  -9.6407  -9.2832  -9.0574  -8.5783
    -8.5696  -8.4983  -8.3392  -8.3165  -8.1075  -8.0393  -8.0191  -7.9893
    -7.6322  -7.5708  -7.4405  -7.4229  -7.2785  -7.1186  -7.0155  -6.7886
    -6.5685  -6.3224  -6.1142  -6.1047  -5.8946  -5.8753  -5.7301  -5.6768
    -5.3996  -5.3294  -5.1158  -4.9883  -4.3524  -4.3096  -4.0201  -3.7007
    -1.5003   0.0865   0.8814   0.9780   1.1015   1.1311   1.2291   1.2937
     1.4146   1.5690   1.6832   1.7928   1.8538   1.8928   1.9092   1.9481
     1.9889   2.0999   2.1562   2.2383   2.2518   2.3110

          k =-0.3333-0.3849 0.0000 ( 59291 PWs)   bands (ev):

   -68.7500 -68.7407 -40.4455 -40.3511 -40.1614 -40.1521 -40.1106 -40.1013
   -21.0591 -20.8617 -20.6660 -20.1045 -19.7510 -19.4120 -19.2629 -19.1190
   -18.9622 -18.7242 -18.5779 -18.4953 -18.0839 -18.0483 -17.8660 -17.6695
   -12.2940 -12.0581 -11.9914 -11.8555 -11.6282 -11.6037 -11.5006 -10.8888
   -10.8346 -10.5681 -10.4727  -9.8049  -9.6407  -9.2831  -9.0580  -8.5797
    -8.5690  -8.4993  -8.3374  -8.3114  -8.1082  -8.0428  -8.0102  -7.9989
    -7.6324  -7.5700  -7.4447  -7.4190  -7.2777  -7.1186  -7.0159  -6.7926
    -6.5674  -6.3188  -6.1076  -6.1049  -5.9005  -5.8746  -5.7302  -5.6808
    -5.3996  -5.3265  -5.1162  -4.9890  -4.3537  -4.3078  -4.0200  -3.7009
    -1.5081   0.1524   0.8708   0.9634   1.1017   1.1208   1.2680   1.3341
     1.3575   1.4762   1.7184   1.7389   1.8080   1.8561   1.9131   1.9991
     2.0580   2.0724   2.1216   2.1659   2.2656   2.2913

          k = 0.5000 0.0962 0.0000 ( 59291 PWs)   bands (ev):

   -68.7500 -68.7407 -40.4455 -40.3511 -40.1614 -40.1520 -40.1106 -40.1013
   -21.0586 -20.8632 -20.6649 -20.1047 -19.7497 -19.4132 -19.2658 -19.1169
   -18.9606 -18.7254 -18.5772 -18.4955 -18.0826 -18.0500 -17.8660 -17.6693
   -12.2933 -12.0596 -11.9900 -11.8565 -11.6354 -11.5956 -11.5010 -10.8889
   -10.8346 -10.5684 -10.4725  -9.8047  -9.6407  -9.2832  -9.0573  -8.5783
    -8.5696  -8.4984  -8.3392  -8.3165  -8.1075  -8.0393  -8.0191  -7.9892
    -7.6322  -7.5707  -7.4405  -7.4230  -7.2785  -7.1187  -7.0155  -6.7886
    -6.5684  -6.3224  -6.1142  -6.1046  -5.8946  -5.8752  -5.7302  -5.6768
    -5.3997  -5.3294  -5.1158  -4.9883  -4.3524  -4.3096  -4.0201  -3.7007
    -1.5003   0.0865   0.8814   0.9780   1.1015   1.1312   1.2291   1.2937
     1.4145   1.5690   1.6832   1.7928   1.8538   1.8928   1.9092   1.9481
     1.9888   2.0998   2.1562   2.2384   2.2518   2.3110

          k =-0.3333 0.3849 0.0000 ( 59291 PWs)   bands (ev):

   -68.7500 -68.7407 -40.4455 -40.3511 -40.1614 -40.1521 -40.1106 -40.1013
   -21.0591 -20.8617 -20.6660 -20.1045 -19.7510 -19.4120 -19.2629 -19.1190
   -18.9622 -18.7242 -18.5779 -18.4953 -18.0839 -18.0483 -17.8661 -17.6695
   -12.2940 -12.0581 -11.9915 -11.8555 -11.6282 -11.6037 -11.5005 -10.8888
   -10.8345 -10.5681 -10.4727  -9.8049  -9.6407  -9.2830  -9.0580  -8.5797
    -8.5690  -8.4992  -8.3375  -8.3114  -8.1083  -8.0428  -8.0102  -7.9989
    -7.6323  -7.5700  -7.4447  -7.4189  -7.2777  -7.1186  -7.0160  -6.7926
    -6.5674  -6.3188  -6.1076  -6.1050  -5.9005  -5.8747  -5.7302  -5.6808
    -5.3995  -5.3265  -5.1163  -4.9890  -4.3537  -4.3079  -4.0199  -3.7009
    -1.5081   0.1524   0.8708   0.9634   1.1017   1.1208   1.2680   1.3341
     1.3575   1.4763   1.7184   1.7389   1.8080   1.8561   1.9131   1.9991
     2.0580   2.0724   2.1216   2.1658   2.2656   2.2912

          k =-0.1667-0.0962 0.0000 ( 59226 PWs)   bands (ev):

   -68.7500 -68.7407 -40.4455 -40.3511 -40.1614 -40.1520 -40.1106 -40.1012
   -21.2582 -20.4791 -20.2924 -20.2845 -19.9327 -19.9255 -19.7529 -18.6740
   -18.6665 -18.3179 -18.3154 -18.3012 -18.2107 -18.2100 -18.0247 -18.0179
   -12.4516 -12.4508 -12.3544 -11.5281 -11.5232 -11.3700 -11.3697 -10.8728
   -10.8705  -9.8762  -9.8727  -9.6222  -9.3209  -9.3194  -9.1763  -9.1747
    -8.9888  -8.9878  -8.8468  -8.2701  -8.2674  -7.8478  -7.8468  -7.7992
    -7.7894  -7.7179  -7.5392  -7.5171  -7.0508  -7.0249  -6.9060  -6.8354
    -6.8331  -6.7887  -6.4787  -6.4751  -6.2049  -5.2716  -5.2484  -5.0901
    -5.0124  -4.7349  -4.7300  -4.6841  -4.5447  -4.5415  -4.2855  -4.2689
    -1.5398   0.3456   0.8681   0.9794   1.0330   1.1839   1.2510   1.3132
     1.5049   1.5676   1.5944   1.6729   1.7736   1.8088   1.8615   1.9165
     1.9991   2.0117   2.0674   2.1006   2.2054   2.2740

          k =-0.0000-0.1925 0.0000 ( 59226 PWs)   bands (ev):

   -68.7500 -68.7407 -40.4455 -40.3511 -40.1614 -40.1520 -40.1106 -40.1013
   -21.2582 -20.4764 -20.2951 -20.2866 -19.9310 -19.9232 -19.7547 -18.6729
   -18.6654 -18.3361 -18.3095 -18.2995 -18.2071 -18.2022 -18.0265 -18.0189
   -12.4570 -12.4455 -12.3543 -11.5289 -11.5230 -11.3758 -11.3626 -10.8734
   -10.8709  -9.8751  -9.8739  -9.6221  -9.3242  -9.3153  -9.1764  -9.1756
    -8.9889  -8.9875  -8.8471  -8.2696  -8.2676  -7.8489  -7.8448  -7.7956
    -7.7845  -7.7189  -7.5456  -7.5259  -7.0400  -7.0236  -6.9053  -6.8363
    -6.8330  -6.7942  -6.4786  -6.4749  -6.2052  -5.2655  -5.2503  -5.0903
    -5.0122  -4.7630  -4.7180  -4.6847  -4.5419  -4.5270  -4.2857  -4.2732
    -1.5467   0.4761   0.8256   0.9462   1.0475   1.2086   1.2218   1.2936
     1.4320   1.5134   1.5564   1.6366   1.6944   1.7846   1.9468   1.9610
     2.0031   2.0319   2.1121   2.1348   2.1420   2.2585

          k = 0.5000-0.8660 0.0000 ( 59292 PWs)   bands (ev):

   -68.7500 -68.7407 -40.4455 -40.3511 -40.1614 -40.1521 -40.1106 -40.1013
   -20.9962 -20.9894 -20.4163 -20.4088 -19.3685 -19.3659 -19.3582 -19.3568
   -18.9390 -18.9341 -18.2689 -18.2685 -18.2605 -18.2596 -17.7405 -17.7335
   -12.0149 -12.0141 -12.0087 -12.0076 -11.8252 -11.8199 -11.2772 -11.2731
   -10.1821 -10.1781 -10.0804 -10.0799 -10.0749 -10.0742  -8.4970  -8.4946
    -8.4945  -8.4899  -8.4882  -8.4813  -7.8109  -7.8107  -7.8061  -7.8051
    -7.7701  -7.7649  -7.7097  -7.6872  -7.4393  -7.4323  -6.5585  -6.5538
    -6.2685  -6.2583  -6.2380  -6.2319  -6.1383  -6.1333  -5.6375  -5.6355
    -5.4937  -5.4881  -4.6438  -4.6406  -4.6395  -4.6372  -3.8201  -3.8032
    -1.5003   0.0849   0.8828   0.9927   1.0977   1.1347   1.2597   1.4569
     1.5424   1.5988   1.6127   1.7002   1.7452   1.8440   1.8697   1.8985
     1.9041   2.0285   2.1441   2.1770   2.2538   2.2835

          k =-1.0000 0.0000 0.0000 ( 59292 PWs)   bands (ev):

   -68.7500 -68.7407 -40.4455 -40.3511 -40.1614 -40.1521 -40.1106 -40.1012
   -21.0127 -20.9715 -20.4181 -20.4096 -19.3715 -19.3681 -19.3593 -19.3472
   -18.9533 -18.9205 -18.3104 -18.2572 -18.2552 -18.2353 -17.7410 -17.7340
   -12.0463 -12.0129 -11.9977 -11.9867 -11.8263 -11.8188 -11.2910 -11.2601
   -10.1851 -10.1834 -10.0790 -10.0777 -10.0737 -10.0721  -8.5316  -8.5179
    -8.4952  -8.4819  -8.4698  -8.4419  -7.8182  -7.8108  -7.8083  -7.8067
    -7.7634  -7.7614  -7.7115  -7.6931  -7.4550  -7.4179  -6.5577  -6.5531
    -6.2727  -6.2597  -6.2374  -6.2182  -6.1508  -6.1225  -5.6610  -5.6145
    -5.5079  -5.4739  -4.7157  -4.6350  -4.6163  -4.5957  -3.8179  -3.8068
    -1.5303   0.4417   0.8617   0.9295   1.1083   1.1258   1.1855   1.2332
     1.3243   1.5706   1.6329   1.6459   1.6810   1.7492   1.8369   1.8734
     2.0488   2.0891   2.1139   2.1283   2.2580   2.2899

     the Fermi energy is    -1.2168 ev

!    total energy              =   -1133.82795643 Ry

     total all-electron energy =     -6753.503659 Ry
     estimated scf accuracy    <       0.00000002 Ry
     smearing contrib. (-TS)   =      -0.00000000 Ry
     internal energy E=F+TS    =   -1133.82795643 Ry

     The total energy is F=E-TS. E is the sum of the following terms:
     one-electron contribution =   -3889.06912556 Ry
     hartree contribution      =    1972.89230256 Ry
     xc contribution           =    -185.99983699 Ry
     ewald contribution        =    1327.72288857 Ry
     DFT-D3 Dispersion         =      -0.13144901 Ry
     one-center paw contrib.   =    -359.24273599 Ry

     total magnetization       =    10.00 Bohr mag/cell
     absolute magnetization    =    10.01 Bohr mag/cell

     convergence has been achieved in  15 iterations

     Writing output data file ./mytmp/Crdimer0.68.save/
 
     init_run     :     81.50s CPU     84.41s WALL (       1 calls)
     electrons    :   2607.55s CPU   2669.51s WALL (       1 calls)

     Called by init_run:
     wfcinit      :     66.05s CPU     67.79s WALL (       1 calls)
     potinit      :      4.00s CPU      4.15s WALL (       1 calls)
     hinit0       :      3.40s CPU      3.56s WALL (       1 calls)

     Called by electrons:
     c_bands      :   1911.07s CPU   1937.81s WALL (      15 calls)
     sum_band     :    570.60s CPU    591.93s WALL (      15 calls)
     v_of_rho     :     27.67s CPU     28.57s WALL (      16 calls)
     newd         :     83.82s CPU     97.35s WALL (      16 calls)
     PAW_pot      :     10.14s CPU     10.36s WALL (      16 calls)
     mix_rho      :      7.60s CPU      7.61s WALL (      15 calls)

     Called by c_bands:
     init_us_2    :     27.10s CPU     27.13s WALL (     930 calls)
     cegterg      :   1859.34s CPU   1885.82s WALL (     450 calls)

     Called by *egterg:
     cdiaghg      :     16.28s CPU     23.94s WALL (    2779 calls)
     h_psi        :   1319.31s CPU   1336.14s WALL (    2809 calls)
     s_psi        :     80.65s CPU     80.69s WALL (    2809 calls)
     g_psi        :      6.06s CPU      6.08s WALL (    2329 calls)

     Called by h_psi:
     h_psi:calbec :     74.74s CPU     75.06s WALL (    2809 calls)
     vloc_psi     :   1138.19s CPU   1154.06s WALL (    2809 calls)
     add_vuspsi   :     89.57s CPU     89.76s WALL (    2809 calls)

     General routines
     calbec       :     92.90s CPU     93.28s WALL (    3259 calls)
     fft          :     24.92s CPU     27.12s WALL (     394 calls)
     ffts         :      0.69s CPU      0.71s WALL (      62 calls)
     fftw         :    931.88s CPU    949.31s WALL (  262098 calls)
     interpolate  :      2.57s CPU      2.61s WALL (      32 calls)
 
     Parallel routines
 
     PWSCF        :  44m50.81s CPU  45m57.31s WALL

 
   This run was terminated on:   2:33:33  28Mar2021            

=------------------------------------------------------------------------------=
   JOB DONE.
=------------------------------------------------------------------------------=
