
     Program PWSCF v.6.7MaX starts on 28Mar2021 at  0:13:12 

     This program is part of the open-source Quantum ESPRESSO suite
     for quantum simulation of materials; please cite
         "P. Giannozzi et al., J. Phys.:Condens. Matter 21 395502 (2009);
         "P. Giannozzi et al., J. Phys.:Condens. Matter 29 465901 (2017);
         "P. Giannozzi et al., J. Chem. Phys. 152 154105 (2020);
          URL http://www.quantum-espresso.org", 
     in publications or presentations arising from this work. More details at
     http://www.quantum-espresso.org/quote

     Parallel version (MPI), running on    16 processors

     MPI processes distributed on     1 nodes
     R & G space division:  proc/nbgrp/npool/nimage =      16
     Reading input from Crdimer0.66.scf.in

     Current dimensions of program PWSCF are:
     Max number of different atomic species (ntypx) = 10
     Max number of k-points (npk) =  40000
     Max angular momentum in pseudopotentials (lmaxx) =  3
     file N.pbe-n-kjpaw_psl.1.0.0.UPF: wavefunction(s)  2S renormalized
     file Cr.pbe-spn-kjpaw_psl.1.0.0.UPF: wavefunction(s)  3S 3P 3D renormalized
     file Cr.pbe-spn-kjpaw_psl.1.0.0.UPF: wavefunction(s)  3S 3P 3D renormalized

     --------------------------------------------
     Parameters for DFT-D3 Dispersion Correction:
     --------------------------------------------
       Reference C6 values for interpolation: 

         atom   Coordination number   C6
         B          0.000           214.36
         B          0.971           150.74
         B          1.944           106.23
         B          2.913            62.89
         B          4.586            56.06
         N          0.000            50.54
         N          0.994            44.25
         N          2.014            39.35
         N          2.990            31.16
         Cr1        0.000          1381.48
         Cr1        1.827           571.38
         Cr1       10.619           306.69
         Cr2        0.000          1381.48
         Cr2        1.827           571.38
         Cr2       10.619           306.69

       Values used:

         atom   Coordination number  R0_AB[au]  C6      C8
         B          3.336            3.039     62.89   2506.00
         B          3.362            3.039     62.87   2505.29
         B          3.335            3.039     62.89   2506.01
         B          3.336            3.039     62.89   2505.99
         B          3.337            3.039     62.89   2505.96
         B          3.338            3.039     62.89   2505.95
         N          3.134            2.478     31.22    688.70
         N          3.204            2.478     31.20    688.19
         N          3.134            2.478     31.22    688.70
         N          3.134            2.478     31.22    688.70
         N          3.139            2.478     31.22    688.66
         N          3.138            2.478     31.22    688.66
         N          3.137            2.478     31.22    688.67
         N          3.139            2.478     31.22    688.66
         N          3.134            2.478     31.22    688.70
         B          3.368            3.039     62.87   2505.11
         B          3.362            3.039     62.87   2505.29
         B          3.338            3.039     62.89   2505.95
         B          3.337            3.039     62.89   2505.96
         B          3.336            3.039     62.89   2506.00
         B          3.368            3.039     62.87   2505.11
         N          3.137            2.478     31.22    688.67
         B          3.336            3.039     62.89   2505.99
         B          3.375            3.039     62.86   2504.89
         B          3.336            3.039     62.89   2506.00
         N          3.138            2.478     31.22    688.66
         N          3.204            2.478     31.20    688.19
         N          3.137            2.478     31.22    688.67
         N          3.137            2.478     31.22    688.67
         N          3.134            2.478     31.22    688.70
         N          3.134            2.478     31.22    688.70
         B          3.336            3.039     62.89   2506.00
         Cr1        0.809            3.252   1203.19 111040.84
         Cr2        0.809            3.252   1203.19 111040.81

         Molecular C6 ( Ry / a.u.^6 ) =     77074.63


     Subspace diagonalization in iterative solution of the eigenvalue problem:
     one sub-group per band group will be used
     scalapack distributed-memory algorithm (size of sub-group:  4*  4 procs)

 
     Parallelization info
     --------------------
     sticks:   dense  smooth     PW     G-vecs:    dense   smooth      PW
     Min         706     296     80               108834    29636    4252
     Max         707     297     81               108839    29645    4263
     Sum       11311    4741   1285              1741401   474235   68095
 
     Using Slab Decomposition
 


     bravais-lattice index     =            4
     lattice parameter (alat)  =      18.9275  a.u.
     unit-cell volume          =   10553.3021 (a.u.)^3
     number of atoms/cell      =           34
     number of atomic types    =            4
     number of electrons       =       156.00
     number of Kohn-Sham states=           94
     kinetic-energy cutoff     =      48.0000  Ry
     charge density cutoff     =     457.0000  Ry
     scf convergence threshold =      1.0E-07
     mixing beta               =       0.5000
     number of iterations used =            8  plain     mixing
     Exchange-correlation= SLA  PW   PBX  PBC
                           (   1   4   3   4   0   0   0)

     celldm(1)=  18.927497  celldm(2)=   0.000000  celldm(3)=   1.797125
     celldm(4)=   0.000000  celldm(5)=   0.000000  celldm(6)=   0.000000

     crystal axes: (cart. coord. in units of alat)
               a(1) = (   1.000000   0.000000   0.000000 )  
               a(2) = (  -0.500000   0.866025   0.000000 )  
               a(3) = (   0.000000   0.000000   1.797125 )  

     reciprocal axes: (cart. coord. in units 2 pi/alat)
               b(1) = (  1.000000  0.577350  0.000000 )  
               b(2) = (  0.000000  1.154701  0.000000 )  
               b(3) = (  0.000000  0.000000  0.556444 )  


     PseudoPot. # 1 for B  read from file:
     /home/yueyi/q-e-gpu-qe-gpu-6.7/pseudo/B.pbe-n-kjpaw_psl.1.0.0.UPF
     MD5 check sum: d9c678ba5d3b2fd7b74e61139c9288d8
     Pseudo is Projector augmented-wave + core cor, Zval =  3.0
     Generated using "atomic" code by A. Dal Corso  v.5.1.2
     Shape of augmentation charge: PSQ
     Using radial grid of 1059 points,  4 beta functions with: 
                l(1) =   0
                l(2) =   0
                l(3) =   1
                l(4) =   1
     Q(r) pseudized with 0 coefficients 


     PseudoPot. # 2 for N  read from file:
     /home/yueyi/q-e-gpu-qe-gpu-6.7/pseudo/N.pbe-n-kjpaw_psl.1.0.0.UPF
     MD5 check sum: e0e4e94a9c4025c5b51bd7d8793849bd
     Pseudo is Projector augmented-wave + core cor, Zval =  5.0
     Generated using "atomic" code by A. Dal Corso  v.5.1.2
     Shape of augmentation charge: PSQ
     Using radial grid of 1085 points,  4 beta functions with: 
                l(1) =   0
                l(2) =   0
                l(3) =   1
                l(4) =   1
     Q(r) pseudized with 0 coefficients 


     PseudoPot. # 3 for Cr read from file:
     /home/yueyi/q-e-gpu-qe-gpu-6.7/pseudo/Cr.pbe-spn-kjpaw_psl.1.0.0.UPF
     MD5 check sum: 198f1a2427a48552563eee314eba32ba
     Pseudo is Projector augmented-wave + core cor, Zval = 14.0
     Generated using &quot;atomic&quot; code by A. Dal Corso  v.6.3
     Shape of augmentation charge: PSQ
     Using radial grid of 1183 points,  6 beta functions with: 
                l(1) =   0
                l(2) =   0
                l(3) =   1
                l(4) =   1
                l(5) =   2
                l(6) =   2
     Q(r) pseudized with 0 coefficients 


     PseudoPot. # 4 for Cr read from file:
     /home/yueyi/q-e-gpu-qe-gpu-6.7/pseudo/Cr.pbe-spn-kjpaw_psl.1.0.0.UPF
     MD5 check sum: 198f1a2427a48552563eee314eba32ba
     Pseudo is Projector augmented-wave + core cor, Zval = 14.0
     Generated using &quot;atomic&quot; code by A. Dal Corso  v.6.3
     Shape of augmentation charge: PSQ
     Using radial grid of 1183 points,  6 beta functions with: 
                l(1) =   0
                l(2) =   0
                l(3) =   1
                l(4) =   1
                l(5) =   2
                l(6) =   2
     Q(r) pseudized with 0 coefficients 


     atomic species   valence    mass     pseudopotential
        B              3.00    10.81100     B ( 1.00)
        N              5.00    14.00674     N ( 1.00)
        Cr1           14.00    51.99610     Cr( 1.00)
        Cr2           14.00    51.99610     Cr( 1.00)

     Starting magnetic structure 
     atomic species   magnetization
        B            0.000
        N            0.000
        Cr1          1.000
        Cr2          1.000

     No symmetry found



   Cartesian axes

     site n.     atom                  positions (alat units)
         1           B   tau(   1) = (  -0.1250000   0.2165064   0.8985623  )
         2           B   tau(   2) = (   0.3750000   0.6495191   0.8985623  )
         3           B   tau(   3) = (   0.2500000   0.0000000   0.8985623  )
         4           B   tau(   4) = (   0.7500000   0.0000000   0.8985623  )
         5           B   tau(   5) = (   0.1250000   0.2165064   0.8985623  )
         6           B   tau(   6) = (  -0.3750000   0.6495191   0.8985623  )
         7           N   tau(   7) = (   0.7500005   0.2886748   0.8985623  )
         8           N   tau(   8) = (   0.3750005   0.5051812   0.8985623  )
         9           N   tau(   9) = (   0.3750005   0.0721685   0.8985623  )
        10           N   tau(  10) = (   0.6250005   0.0721685   0.8985623  )
        11           N   tau(  11) = (   0.2500005   0.2886748   0.8985623  )
        12           N   tau(  12) = (   0.6250005   0.5051812   0.8985623  )
        13           N   tau(  13) = (   0.0000005   0.2886748   0.8985623  )
        14           N   tau(  14) = (   0.2500005   0.7216875   0.8985623  )
        15           N   tau(  15) = (  -0.2499995   0.7216875   0.8985623  )
        16           B   tau(  16) = (   0.0000000   0.4330127   0.8985623  )
        17           B   tau(  17) = (   0.1250000   0.6495191   0.8985623  )
        18           B   tau(  18) = (  -0.1250000   0.6495191   0.8985623  )
        19           B   tau(  19) = (   0.3750000   0.2165064   0.8985623  )
        20           B   tau(  20) = (   0.6250000   0.2165064   0.8985623  )
        21           B   tau(  21) = (   0.5000000   0.4330127   0.8985623  )
        22           N   tau(  22) = (   0.5000005   0.2886748   0.8985623  )
        23           B   tau(  23) = (  -0.2500000   0.4330127   0.8985623  )
        24           B   tau(  24) = (   0.2500000   0.4330127   0.8985623  )
        25           B   tau(  25) = (   0.5000000   0.0000000   0.8985623  )
        26           N   tau(  26) = (  -0.1249995   0.5051812   0.8985623  )
        27           N   tau(  27) = (   0.1250005   0.5051812   0.8985623  )
        28           N   tau(  28) = (   0.0000005   0.7216875   0.8985623  )
        29           N   tau(  29) = (   0.5000005   0.7216875   0.8985623  )
        30           N   tau(  30) = (   0.1250005   0.0721685   0.8985623  )
        31           N   tau(  31) = (   0.8750005   0.0721685   0.8985623  )
        32           B   tau(  32) = (   0.0000000   0.0000000   0.8985623  )
        33           Cr1 tau(  33) = (   0.1083335   0.5051812   1.1861022  )
        34           Cr2 tau(  34) = (   0.3916668   0.5051812   1.1861022  )

     number of k points=    15  Gaussian smearing, width (Ry)=  0.0000
                       cart. coord. in units 2pi/alat
        k(    1) = (   0.1666667   0.2886751   0.0000000), wk =   0.0740741
        k(    2) = (   0.1666667  -0.4811252   0.0000000), wk =   0.0740741
        k(    3) = (   0.1666667  -0.0962250   0.0000000), wk =   0.0740741
        k(    4) = (  -0.5000000  -0.8660254   0.0000000), wk =   0.0370370
        k(    5) = (  -0.1666667   0.2886751   0.0000000), wk =   0.0740741
        k(    6) = (   0.3333333   0.0000000   0.0000000), wk =   0.0740741
        k(    7) = (  -0.1666667  -0.4811252   0.0000000), wk =   0.0740741
        k(    8) = (   0.5000000  -0.0962250   0.0000000), wk =   0.0740741
        k(    9) = (  -0.3333333  -0.3849002   0.0000000), wk =   0.0740741
        k(   10) = (   0.5000000   0.0962250   0.0000000), wk =   0.0740741
        k(   11) = (  -0.3333333   0.3849002   0.0000000), wk =   0.0740741
        k(   12) = (  -0.1666667  -0.0962250   0.0000000), wk =   0.0740741
        k(   13) = (  -0.0000000  -0.1924501   0.0000000), wk =   0.0740741
        k(   14) = (   0.5000000  -0.8660254   0.0000000), wk =   0.0370370
        k(   15) = (  -1.0000000   0.0000000   0.0000000), wk =   0.0370370

     Dense  grid:  1741401 G-vectors     FFT dimensions: ( 135, 135, 240)

     Smooth grid:   474235 G-vectors     FFT dimensions: (  90,  90, 160)

     Estimated max dynamical RAM per process >     642.21 MB

     Estimated total dynamical RAM >      10.03 GB
     Generating pointlists ...
     new r_m :   0.0595 (alat units)  1.1269 (a.u.) for type    1
     new r_m :   0.0595 (alat units)  1.1269 (a.u.) for type    2
     new r_m :   0.1169 (alat units)  2.2122 (a.u.) for type    3
     new r_m :   0.1169 (alat units)  2.2122 (a.u.) for type    4

     Initial potential from superposition of free atoms

     starting charge  155.99382, renormalised to  156.00000

     negative rho (up, down):  6.854E-03 4.655E-04
     Starting wfcs are  148 randomized atomic wfcs
     Checking if some PAW data can be deallocated... 

     total cpu time spent up to now is       84.8 secs

     Self-consistent Calculation

     iteration #  1     ecut=    48.00 Ry     beta= 0.50
     Davidson diagonalization with overlap
     ethr =  1.00E-02,  avg # of iterations =  2.7

     negative rho (up, down):  4.977E-03 2.829E-03

     total cpu time spent up to now is      281.8 secs

     total energy              =   -1130.76328949 Ry
     estimated scf accuracy    <      11.28662179 Ry

     total magnetization       =    12.00 Bohr mag/cell
     absolute magnetization    =    12.14 Bohr mag/cell

     iteration #  2     ecut=    48.00 Ry     beta= 0.50
     Davidson diagonalization with overlap
     ethr =  7.24E-03,  avg # of iterations =  2.6

     negative rho (up, down):  1.084E-02 1.044E-02

     total cpu time spent up to now is      464.9 secs

     total energy              =   -1132.48118567 Ry
     estimated scf accuracy    <       4.78097579 Ry

     total magnetization       =     9.11 Bohr mag/cell
     absolute magnetization    =     9.45 Bohr mag/cell

     iteration #  3     ecut=    48.00 Ry     beta= 0.50
     Davidson diagonalization with overlap
     ethr =  3.06E-03,  avg # of iterations =  7.2

     negative rho (up, down):  7.836E-03 7.994E-03

     total cpu time spent up to now is      663.9 secs

     total energy              =   -1133.49067136 Ry
     estimated scf accuracy    <       1.45777185 Ry

     total magnetization       =    10.00 Bohr mag/cell
     absolute magnetization    =    10.18 Bohr mag/cell

     iteration #  4     ecut=    48.00 Ry     beta= 0.50
     Davidson diagonalization with overlap
     ethr =  9.34E-04,  avg # of iterations =  5.9

     negative rho (up, down):  5.982E-03 5.382E-03

     total cpu time spent up to now is      836.7 secs

     total energy              =   -1133.79368886 Ry
     estimated scf accuracy    <       0.26272005 Ry

     total magnetization       =    10.00 Bohr mag/cell
     absolute magnetization    =    10.06 Bohr mag/cell

     iteration #  5     ecut=    48.00 Ry     beta= 0.50
     Davidson diagonalization with overlap
     ethr =  1.68E-04,  avg # of iterations = 10.2

     negative rho (up, down):  5.903E-03 3.895E-03

     total cpu time spent up to now is     1034.7 secs

     total energy              =   -1133.74074286 Ry
     estimated scf accuracy    <       0.76680024 Ry

     total magnetization       =    10.00 Bohr mag/cell
     absolute magnetization    =    10.01 Bohr mag/cell

     iteration #  6     ecut=    48.00 Ry     beta= 0.50
     Davidson diagonalization with overlap
     ethr =  1.68E-04,  avg # of iterations =  6.8

     negative rho (up, down):  3.682E-03 4.018E-03

     total cpu time spent up to now is     1217.2 secs

     total energy              =   -1133.81366933 Ry
     estimated scf accuracy    <       0.07911108 Ry

     total magnetization       =    10.00 Bohr mag/cell
     absolute magnetization    =    10.01 Bohr mag/cell

     iteration #  7     ecut=    48.00 Ry     beta= 0.50
     Davidson diagonalization with overlap
     ethr =  5.07E-05,  avg # of iterations =  6.3

     negative rho (up, down):  3.255E-03 3.791E-03

     total cpu time spent up to now is     1399.0 secs

     total energy              =   -1133.82250596 Ry
     estimated scf accuracy    <       0.01795339 Ry

     total magnetization       =    10.00 Bohr mag/cell
     absolute magnetization    =    10.02 Bohr mag/cell

     iteration #  8     ecut=    48.00 Ry     beta= 0.50
     Davidson diagonalization with overlap
     ethr =  1.15E-05,  avg # of iterations =  5.9

     negative rho (up, down):  3.144E-03 3.770E-03

     total cpu time spent up to now is     1564.7 secs

     total energy              =   -1133.82420265 Ry
     estimated scf accuracy    <       0.00234982 Ry

     total magnetization       =    10.00 Bohr mag/cell
     absolute magnetization    =    10.01 Bohr mag/cell

     iteration #  9     ecut=    48.00 Ry     beta= 0.50
     Davidson diagonalization with overlap
     ethr =  1.51E-06,  avg # of iterations = 10.4

     negative rho (up, down):  3.131E-03 3.791E-03

     total cpu time spent up to now is     1765.1 secs

     total energy              =   -1133.82443118 Ry
     estimated scf accuracy    <       0.00089708 Ry

     total magnetization       =    10.00 Bohr mag/cell
     absolute magnetization    =    10.01 Bohr mag/cell

     iteration # 10     ecut=    48.00 Ry     beta= 0.50
     Davidson diagonalization with overlap
     ethr =  5.75E-07,  avg # of iterations =  2.0

     negative rho (up, down):  3.121E-03 3.797E-03

     total cpu time spent up to now is     1917.1 secs

     total energy              =   -1133.82449932 Ry
     estimated scf accuracy    <       0.00027012 Ry

     total magnetization       =    10.00 Bohr mag/cell
     absolute magnetization    =    10.01 Bohr mag/cell

     iteration # 11     ecut=    48.00 Ry     beta= 0.50
     Davidson diagonalization with overlap
     ethr =  1.73E-07,  avg # of iterations =  3.9

     negative rho (up, down):  3.130E-03 3.807E-03

     total cpu time spent up to now is     2074.7 secs

     total energy              =   -1133.82452665 Ry
     estimated scf accuracy    <       0.00004871 Ry

     total magnetization       =    10.00 Bohr mag/cell
     absolute magnetization    =    10.01 Bohr mag/cell

     iteration # 12     ecut=    48.00 Ry     beta= 0.50
     Davidson diagonalization with overlap
     ethr =  3.12E-08,  avg # of iterations =  5.2

     negative rho (up, down):  3.109E-03 3.804E-03

     total cpu time spent up to now is     2241.5 secs

     total energy              =   -1133.82454128 Ry
     estimated scf accuracy    <       0.00000898 Ry

     total magnetization       =    10.00 Bohr mag/cell
     absolute magnetization    =    10.01 Bohr mag/cell

     iteration # 13     ecut=    48.00 Ry     beta= 0.50
     Davidson diagonalization with overlap
     ethr =  5.75E-09,  avg # of iterations =  2.9

     negative rho (up, down):  3.107E-03 3.807E-03

     total cpu time spent up to now is     2399.7 secs

     total energy              =   -1133.82454402 Ry
     estimated scf accuracy    <       0.00000089 Ry

     total magnetization       =    10.00 Bohr mag/cell
     absolute magnetization    =    10.01 Bohr mag/cell

     iteration # 14     ecut=    48.00 Ry     beta= 0.50
     Davidson diagonalization with overlap
     ethr =  5.68E-10,  avg # of iterations =  5.5

     negative rho (up, down):  3.105E-03 3.808E-03

     total cpu time spent up to now is     2575.1 secs

     total energy              =   -1133.82454474 Ry
     estimated scf accuracy    <       0.00000024 Ry

     total magnetization       =    10.00 Bohr mag/cell
     absolute magnetization    =    10.01 Bohr mag/cell

     iteration # 15     ecut=    48.00 Ry     beta= 0.50
     Davidson diagonalization with overlap
     ethr =  1.53E-10,  avg # of iterations =  4.2

     negative rho (up, down):  3.105E-03 3.809E-03

     total cpu time spent up to now is     2738.9 secs

     total energy              =   -1133.82454490 Ry
     estimated scf accuracy    <       0.00000011 Ry

     total magnetization       =    10.00 Bohr mag/cell
     absolute magnetization    =    10.01 Bohr mag/cell

     iteration # 16     ecut=    48.00 Ry     beta= 0.50
     Davidson diagonalization with overlap
     ethr =  6.97E-11,  avg # of iterations =  4.0

     negative rho (up, down):  3.105E-03 3.809E-03
 
     Magnetic moment per site:
     atom:    1    charge:    0.8804    magn:    0.0003    constr:    0.0000
     atom:    2    charge:    0.8802    magn:    0.0010    constr:    0.0000
     atom:    3    charge:    0.8802    magn:    0.0001    constr:    0.0000
     atom:    4    charge:    0.8801    magn:    0.0003    constr:    0.0000
     atom:    5    charge:    0.8800    magn:    0.0003    constr:    0.0000
     atom:    6    charge:    0.8806    magn:    0.0002    constr:    0.0000
     atom:    7    charge:    2.8609    magn:    0.0007    constr:    0.0000
     atom:    8    charge:    2.8616    magn:    0.0075    constr:    0.0000
     atom:    9    charge:    2.8609    magn:    0.0001    constr:    0.0000
     atom:   10    charge:    2.8609    magn:    0.0004    constr:    0.0000
     atom:   11    charge:    2.8604    magn:    0.0032    constr:    0.0000
     atom:   12    charge:    2.8608    magn:    0.0019    constr:    0.0000
     atom:   13    charge:    2.8596    magn:    0.0030    constr:    0.0000
     atom:   14    charge:    2.8593    magn:    0.0037    constr:    0.0000
     atom:   15    charge:    2.8600    magn:    0.0000    constr:    0.0000
     atom:   16    charge:    0.8810    magn:    0.0008    constr:    0.0000
     atom:   17    charge:    0.8799    magn:    0.0010    constr:    0.0000
     atom:   18    charge:    0.8803    magn:    0.0002    constr:    0.0000
     atom:   19    charge:    0.8794    magn:    0.0003    constr:    0.0000
     atom:   20    charge:    0.8798    magn:    0.0003    constr:    0.0000
     atom:   21    charge:    0.8807    magn:    0.0008    constr:    0.0000
     atom:   22    charge:    2.8609    magn:    0.0030    constr:    0.0000
     atom:   23    charge:    0.8802    magn:    0.0004    constr:    0.0000
     atom:   24    charge:    0.8788    magn:    0.0016    constr:    0.0000
     atom:   25    charge:    0.8798    magn:    0.0004    constr:    0.0000
     atom:   26    charge:    2.8597    magn:    0.0019    constr:    0.0000
     atom:   27    charge:    2.8604    magn:    0.0075    constr:    0.0000
     atom:   28    charge:    2.8597    magn:    0.0026    constr:    0.0000
     atom:   29    charge:    2.8595    magn:    0.0026    constr:    0.0000
     atom:   30    charge:    2.8596    magn:    0.0001    constr:    0.0000
     atom:   31    charge:    2.8595    magn:    0.0004    constr:    0.0000
     atom:   32    charge:    0.8801    magn:    0.0004    constr:    0.0000
     atom:   33    charge:   12.5289    magn:    4.2336    constr:    0.0000
     atom:   34    charge:   12.5287    magn:    4.2334    constr:    0.0000

     total cpu time spent up to now is     2899.2 secs

     End of self-consistent calculation

 ------ SPIN UP ------------


          k = 0.1667 0.2887 0.0000 ( 59267 PWs)   bands (ev):

   -72.8043 -72.7962 -44.3393 -44.2594 -44.2314 -44.2236 -44.1731 -44.1652
   -21.3229 -20.7404 -20.7237 -20.1786 -20.1701 -19.6635 -19.6507 -19.1724
   -18.7819 -18.7602 -18.5267 -18.5233 -18.2708 -18.1563 -18.1411 -17.9201
   -12.5585 -12.2793 -12.2758 -11.8934 -11.8872 -11.7306 -11.2678 -11.2573
   -10.4642 -10.4406 -10.1919 -10.1830  -9.6635  -9.6585  -8.9347  -8.8995
    -8.8963  -8.8405  -8.8292  -8.6670  -8.2670  -8.1587  -8.0871  -7.9026
    -7.8975  -7.5127  -7.5073  -7.3755  -7.3423  -7.2805  -7.2756  -7.0287
    -7.0271  -6.6626  -6.6053  -6.2258  -6.2230  -5.9581  -5.4892  -5.4096
    -5.3480  -5.2705  -4.9910  -4.9805  -4.5980  -4.4339  -4.4047  -4.0575
    -2.7828  -1.9761  -1.9601  -1.7609  -1.6074  -1.4528  -1.4455  -1.4328
    -1.3100  -1.2738  -1.1423  -0.6629   0.6584   0.7992   1.1441   1.2158
     1.2402   1.4004   1.4708   1.5234   1.5890   1.8324

          k = 0.1667-0.4811 0.0000 ( 59291 PWs)   bands (ev):

   -72.8043 -72.7962 -44.3393 -44.2594 -44.2314 -44.2236 -44.1731 -44.1652
   -21.1963 -20.9801 -20.7978 -20.2362 -19.8774 -19.5384 -19.3907 -19.2482
   -19.0857 -18.8483 -18.7284 -18.6075 -18.2304 -18.1480 -17.9931 -17.7948
   -12.4240 -12.1887 -12.1166 -11.9748 -11.7540 -11.7302 -11.6227 -11.0135
   -10.9650 -10.6979 -10.5902  -9.9351  -9.7645  -9.4072  -9.1831  -8.7790
    -8.6964  -8.6257  -8.4581  -8.4404  -8.2325  -8.2121  -8.1354  -8.1190
    -7.7652  -7.6942  -7.5671  -7.5415  -7.4493  -7.2401  -7.1379  -6.9479
    -6.6943  -6.4715  -6.2696  -6.2287  -6.0543  -6.0006  -5.8552  -5.8270
    -5.5204  -5.4742  -5.3231  -5.1057  -4.5444  -4.4055  -4.1676  -3.8462
    -2.7798  -1.9773  -1.9593  -1.7574  -1.6047  -1.4568  -1.4450  -1.4345
    -1.3105  -1.2735  -1.1427  -0.6664   0.5846   0.8042   1.0206   1.1466
     1.2137   1.2819   1.3879   1.7864   1.9208   2.0627

          k = 0.1667-0.0962 0.0000 ( 59226 PWs)   bands (ev):

   -72.8043 -72.7962 -44.3393 -44.2594 -44.2314 -44.2235 -44.1731 -44.1652
   -21.3886 -20.6158 -20.4222 -20.4026 -20.0738 -20.0467 -19.8729 -18.8168
   -18.7886 -18.4562 -18.4412 -18.4217 -18.3368 -18.3347 -18.1482 -18.1342
   -12.5805 -12.5767 -12.4803 -11.6581 -11.6434 -11.4966 -11.4955 -10.9996
   -10.9928 -10.0050  -9.9953  -9.7481  -9.4492  -9.4442  -9.3029  -9.2969
    -9.1142  -9.1105  -9.0198  -8.3983  -8.3905  -7.9923  -7.9735  -7.9704
    -7.9155  -7.8406  -7.6977  -7.6503  -7.2486  -7.1619  -7.0320  -6.9614
    -6.9522  -6.9202  -6.6052  -6.5957  -6.3279  -5.4716  -5.3864  -5.2138
    -5.1361  -4.9152  -4.8846  -4.8200  -4.6910  -4.6811  -4.4323  -4.3958
    -2.7858  -1.9750  -1.9609  -1.7643  -1.6121  -1.4495  -1.4455  -1.4312
    -1.3095  -1.2742  -1.1419  -0.6590   0.7208   0.7796   1.1471   1.1637
     1.2801   1.3226   1.5200   1.5339   1.7702   1.8734

          k =-0.5000-0.8660 0.0000 ( 59292 PWs)   bands (ev):

   -72.8043 -72.7962 -44.3393 -44.2594 -44.2314 -44.2236 -44.1730 -44.1652
   -21.1328 -21.1154 -20.5481 -20.5285 -19.5135 -19.5029 -19.4778 -19.4747
   -19.0677 -19.0557 -18.4020 -18.3977 -18.3827 -18.3813 -17.8694 -17.8523
   -12.1489 -12.1446 -12.1314 -12.1301 -11.9564 -11.9387 -11.4039 -11.3945
   -10.3141 -10.2989 -10.2107 -10.2066 -10.1950 -10.1945  -8.7096  -8.6307
    -8.6216  -8.6147  -8.6127  -8.6104  -7.9432  -7.9390  -7.9254  -7.9253
    -7.8956  -7.8878  -7.8729  -7.8233  -7.5622  -7.5540  -6.6904  -6.6741
    -6.4835  -6.4363  -6.3735  -6.3613  -6.2613  -6.2550  -5.8007  -5.7662
    -5.6194  -5.6095  -4.8253  -4.8204  -4.7643  -4.7528  -3.9787  -3.9318
    -2.7670  -1.9756  -1.9554  -1.7579  -1.6076  -1.4538  -1.4436  -1.4365
    -1.3134  -1.2831  -1.1452  -0.7966   0.7420   0.9356   1.0513   1.2872
     1.3483   1.4905   1.5256   1.5851   1.7489   1.7694

          k =-0.1667 0.2887 0.0000 ( 59267 PWs)   bands (ev):

   -72.8043 -72.7962 -44.3393 -44.2594 -44.2314 -44.2236 -44.1731 -44.1652
   -21.3229 -20.7404 -20.7237 -20.1786 -20.1701 -19.6635 -19.6507 -19.1724
   -18.7819 -18.7602 -18.5267 -18.5233 -18.2708 -18.1562 -18.1411 -17.9201
   -12.5585 -12.2793 -12.2758 -11.8934 -11.8872 -11.7307 -11.2678 -11.2573
   -10.4642 -10.4405 -10.1919 -10.1831  -9.6635  -9.6585  -8.9347  -8.8995
    -8.8962  -8.8405  -8.8292  -8.6670  -8.2670  -8.1587  -8.0871  -7.9026
    -7.8975  -7.5127  -7.5073  -7.3755  -7.3423  -7.2805  -7.2756  -7.0287
    -7.0271  -6.6626  -6.6053  -6.2257  -6.2230  -5.9581  -5.4893  -5.4096
    -5.3480  -5.2704  -4.9910  -4.9805  -4.5980  -4.4339  -4.4047  -4.0575
    -2.7828  -1.9761  -1.9601  -1.7609  -1.6074  -1.4528  -1.4454  -1.4328
    -1.3100  -1.2738  -1.1423  -0.6629   0.6584   0.7992   1.1441   1.2158
     1.2402   1.4004   1.4708   1.5234   1.5890   1.8324

          k = 0.3333 0.0000 0.0000 ( 59267 PWs)   bands (ev):

   -72.8043 -72.7962 -44.3393 -44.2594 -44.2314 -44.2235 -44.1731 -44.1652
   -21.3218 -20.7763 -20.6873 -20.1912 -20.1528 -19.7038 -19.6159 -19.1783
   -18.7996 -18.7285 -18.5463 -18.5077 -18.2628 -18.1925 -18.1198 -17.9178
   -12.5558 -12.2928 -12.2638 -11.9088 -11.8781 -11.7258 -11.2926 -11.2327
   -10.4641 -10.4380 -10.2115 -10.1657  -9.6708  -9.6473  -8.9334  -8.9071
    -8.8830  -8.8745  -8.7993  -8.6698  -8.2720  -8.2228  -8.0211  -7.9019
    -7.8931  -7.5200  -7.4981  -7.4007  -7.3049  -7.2938  -7.2612  -7.0458
    -7.0138  -6.7363  -6.5490  -6.2295  -6.2174  -5.9746  -5.4888  -5.4191
    -5.3081  -5.2713  -5.0291  -4.9485  -4.5872  -4.4812  -4.3815  -4.0537
    -2.7743  -1.9749  -1.9565  -1.7613  -1.6115  -1.4507  -1.4444  -1.4338
    -1.3120  -1.2804  -1.1438  -0.7532   0.7365   0.9669   1.2132   1.2433
     1.2624   1.4049   1.4641   1.5166   1.5672   1.8953

          k =-0.1667-0.4811 0.0000 ( 59291 PWs)   bands (ev):

   -72.8043 -72.7962 -44.3393 -44.2594 -44.2314 -44.2236 -44.1731 -44.1652
   -21.1963 -20.9801 -20.7978 -20.2362 -19.8774 -19.5384 -19.3907 -19.2482
   -19.0857 -18.8483 -18.7284 -18.6075 -18.2304 -18.1480 -17.9931 -17.7948
   -12.4241 -12.1887 -12.1166 -11.9748 -11.7540 -11.7302 -11.6227 -11.0135
   -10.9650 -10.6979 -10.5902  -9.9350  -9.7645  -9.4072  -9.1831  -8.7790
    -8.6963  -8.6257  -8.4581  -8.4404  -8.2325  -8.2121  -8.1355  -8.1191
    -7.7652  -7.6943  -7.5670  -7.5415  -7.4493  -7.2401  -7.1379  -6.9478
    -6.6943  -6.4716  -6.2697  -6.2287  -6.0543  -6.0006  -5.8552  -5.8270
    -5.5205  -5.4742  -5.3231  -5.1057  -4.5444  -4.4055  -4.1676  -3.8462
    -2.7798  -1.9773  -1.9593  -1.7574  -1.6047  -1.4568  -1.4450  -1.4345
    -1.3105  -1.2735  -1.1427  -0.6664   0.5846   0.8042   1.0206   1.1466
     1.2136   1.2819   1.3879   1.7864   1.9208   2.0626

          k = 0.5000-0.0962 0.0000 ( 59291 PWs)   bands (ev):

   -72.8043 -72.7962 -44.3393 -44.2594 -44.2314 -44.2236 -44.1731 -44.1652
   -21.1895 -20.9989 -20.7858 -20.2319 -19.8761 -19.5462 -19.4028 -19.2359
   -19.0895 -18.8531 -18.7007 -18.6210 -18.2100 -18.1801 -17.9863 -17.7935
   -12.4192 -12.1909 -12.1123 -11.9860 -11.7748 -11.7039 -11.6275 -11.0147
   -10.9590 -10.6937 -10.5966  -9.9295  -9.7655  -9.4092  -9.1816  -8.7592
    -8.6986  -8.6211  -8.4997  -8.4683  -8.2278  -8.1742  -8.1581  -8.0991
    -7.7548  -7.6954  -7.5653  -7.5442  -7.4363  -7.2439  -7.1397  -6.9424
    -6.6953  -6.5009  -6.2942  -6.2268  -6.0253  -5.9988  -5.8535  -5.8353
    -5.5234  -5.4828  -5.2660  -5.1321  -4.5145  -4.4533  -4.1592  -3.8438
    -2.7670  -1.9756  -1.9554  -1.7579  -1.6087  -1.4537  -1.4436  -1.4365
    -1.3134  -1.2831  -1.1452  -0.7963   0.7176   0.9345   1.0722   1.2096
     1.2409   1.3446   1.5376   1.7625   1.8432   1.9246

          k =-0.3333-0.3849 0.0000 ( 59291 PWs)   bands (ev):

   -72.8043 -72.7962 -44.3393 -44.2594 -44.2314 -44.2236 -44.1731 -44.1652
   -21.1919 -20.9923 -20.7904 -20.2309 -19.8826 -19.5395 -19.3901 -19.2461
   -19.0965 -18.8476 -18.7043 -18.6201 -18.2151 -18.1731 -17.9867 -17.7941
   -12.4223 -12.1842 -12.1185 -11.9816 -11.7565 -11.7264 -11.6256 -11.0145
   -10.9586 -10.6923 -10.5977  -9.9308  -9.7657  -9.4082  -9.1846  -8.7663
    -8.6945  -8.6249  -8.4784  -8.4618  -8.2312  -8.1882  -8.1365  -8.1241
    -7.7552  -7.6922  -7.5772  -7.5330  -7.4323  -7.2439  -7.1416  -6.9641
    -6.6902  -6.4762  -6.2640  -6.2325  -6.0540  -5.9962  -5.8548  -5.8520
    -5.5228  -5.4691  -5.2696  -5.1340  -4.5187  -4.4468  -4.1587  -3.8446
    -2.7713  -1.9762  -1.9572  -1.7577  -1.6066  -1.4548  -1.4442  -1.4358
    -1.3124  -1.2798  -1.1443  -0.7567   0.6812   0.8972   1.0345   1.1608
     1.2967   1.3251   1.4518   1.8063   1.8734   1.9184

          k = 0.5000 0.0962 0.0000 ( 59291 PWs)   bands (ev):

   -72.8043 -72.7962 -44.3393 -44.2594 -44.2314 -44.2236 -44.1731 -44.1652
   -21.1895 -20.9989 -20.7858 -20.2319 -19.8761 -19.5462 -19.4028 -19.2359
   -19.0895 -18.8531 -18.7007 -18.6210 -18.2100 -18.1802 -17.9863 -17.7935
   -12.4192 -12.1909 -12.1123 -11.9861 -11.7748 -11.7039 -11.6275 -11.0147
   -10.9590 -10.6937 -10.5966  -9.9295  -9.7656  -9.4091  -9.1815  -8.7592
    -8.6986  -8.6211  -8.4997  -8.4683  -8.2278  -8.1742  -8.1580  -8.0990
    -7.7549  -7.6954  -7.5653  -7.5442  -7.4363  -7.2440  -7.1396  -6.9424
    -6.6952  -6.5009  -6.2942  -6.2267  -6.0253  -5.9987  -5.8536  -5.8353
    -5.5234  -5.4828  -5.2660  -5.1321  -4.5145  -4.4533  -4.1592  -3.8438
    -2.7670  -1.9756  -1.9554  -1.7579  -1.6087  -1.4536  -1.4436  -1.4365
    -1.3134  -1.2831  -1.1452  -0.7963   0.7176   0.9345   1.0723   1.2096
     1.2409   1.3446   1.5376   1.7626   1.8433   1.9246

          k =-0.3333 0.3849 0.0000 ( 59291 PWs)   bands (ev):

   -72.8043 -72.7962 -44.3393 -44.2594 -44.2314 -44.2236 -44.1731 -44.1652
   -21.1919 -20.9923 -20.7904 -20.2309 -19.8826 -19.5395 -19.3901 -19.2461
   -19.0965 -18.8476 -18.7043 -18.6201 -18.2151 -18.1731 -17.9867 -17.7941
   -12.4223 -12.1842 -12.1185 -11.9816 -11.7565 -11.7264 -11.6256 -11.0146
   -10.9586 -10.6922 -10.5977  -9.9308  -9.7657  -9.4082  -9.1846  -8.7663
    -8.6946  -8.6248  -8.4784  -8.4618  -8.2312  -8.1882  -8.1365  -8.1241
    -7.7552  -7.6922  -7.5772  -7.5330  -7.4323  -7.2439  -7.1416  -6.9641
    -6.6903  -6.4762  -6.2640  -6.2326  -6.0540  -5.9963  -5.8548  -5.8520
    -5.5227  -5.4691  -5.2697  -5.1340  -4.5188  -4.4468  -4.1587  -3.8446
    -2.7713  -1.9762  -1.9572  -1.7577  -1.6066  -1.4548  -1.4442  -1.4358
    -1.3124  -1.2798  -1.1443  -0.7567   0.6812   0.8972   1.0345   1.1608
     1.2967   1.3251   1.4518   1.8063   1.8734   1.9184

          k =-0.1667-0.0962 0.0000 ( 59226 PWs)   bands (ev):

   -72.8043 -72.7962 -44.3393 -44.2594 -44.2314 -44.2235 -44.1731 -44.1652
   -21.3886 -20.6158 -20.4222 -20.4026 -20.0738 -20.0467 -19.8729 -18.8168
   -18.7886 -18.4562 -18.4412 -18.4217 -18.3368 -18.3347 -18.1482 -18.1342
   -12.5805 -12.5767 -12.4803 -11.6581 -11.6433 -11.4966 -11.4955 -10.9996
   -10.9928 -10.0050  -9.9953  -9.7480  -9.4492  -9.4441  -9.3030  -9.2969
    -9.1142  -9.1105  -9.0198  -8.3983  -8.3905  -7.9923  -7.9735  -7.9704
    -7.9155  -7.8407  -7.6977  -7.6503  -7.2486  -7.1619  -7.0321  -6.9614
    -6.9521  -6.9202  -6.6052  -6.5956  -6.3280  -5.4716  -5.3864  -5.2137
    -5.1362  -4.9152  -4.8846  -4.8200  -4.6910  -4.6811  -4.4323  -4.3958
    -2.7858  -1.9750  -1.9609  -1.7643  -1.6121  -1.4494  -1.4455  -1.4311
    -1.3095  -1.2742  -1.1419  -0.6590   0.7208   0.7796   1.1471   1.1637
     1.2801   1.3227   1.5200   1.5340   1.7703   1.8734

          k =-0.0000-0.1925 0.0000 ( 59226 PWs)   bands (ev):

   -72.8043 -72.7962 -44.3393 -44.2594 -44.2314 -44.2236 -44.1731 -44.1652
   -21.3890 -20.6038 -20.4310 -20.4157 -20.0577 -20.0449 -19.8809 -18.8052
   -18.7906 -18.5053 -18.4318 -18.4197 -18.3181 -18.3137 -18.1522 -18.1417
   -12.5928 -12.5644 -12.4803 -11.6568 -11.6471 -11.5076 -11.4782 -11.0008
   -10.9960 -10.0006 -10.0001  -9.7477  -9.4563  -9.4340  -9.3024  -9.3018
    -9.1129  -9.1104  -9.0210  -8.3950  -8.3927  -7.9744  -7.9656  -7.9550
    -7.9166  -7.8451  -7.7359  -7.6790  -7.1930  -7.1667  -7.0290  -6.9609
    -6.9561  -6.9396  -6.6026  -6.5970  -6.3291  -5.4393  -5.3998  -5.2145
    -5.1354  -4.9957  -4.8528  -4.8333  -4.6587  -4.6507  -4.4321  -4.4149
    -2.7900  -1.9757  -1.9627  -1.7640  -1.6101  -1.4504  -1.4462  -1.4308
    -1.3085  -1.2709  -1.1413  -0.6059   0.6381   0.7417   1.1106   1.1444
     1.2267   1.3819   1.4887   1.5672   1.7160   1.9344

          k = 0.5000-0.8660 0.0000 ( 59292 PWs)   bands (ev):

   -72.8043 -72.7962 -44.3393 -44.2594 -44.2314 -44.2236 -44.1730 -44.1652
   -21.1328 -21.1155 -20.5481 -20.5285 -19.5135 -19.5029 -19.4778 -19.4747
   -19.0677 -19.0557 -18.4020 -18.3977 -18.3828 -18.3813 -17.8694 -17.8523
   -12.1489 -12.1445 -12.1315 -12.1301 -11.9564 -11.9387 -11.4039 -11.3945
   -10.3141 -10.2990 -10.2107 -10.2066 -10.1949 -10.1945  -8.7096  -8.6306
    -8.6216  -8.6146  -8.6126  -8.6104  -7.9432  -7.9390  -7.9254  -7.9252
    -7.8957  -7.8879  -7.8729  -7.8233  -7.5622  -7.5540  -6.6903  -6.6740
    -6.4835  -6.4363  -6.3735  -6.3613  -6.2612  -6.2550  -5.8007  -5.7662
    -5.6195  -5.6096  -4.8253  -4.8203  -4.7643  -4.7528  -3.9787  -3.9318
    -2.7670  -1.9756  -1.9554  -1.7579  -1.6076  -1.4537  -1.4437  -1.4365
    -1.3134  -1.2831  -1.1452  -0.7966   0.7419   0.9356   1.0513   1.2872
     1.3483   1.4905   1.5255   1.5851   1.7489   1.7695

          k =-1.0000 0.0000 0.0000 ( 59292 PWs)   bands (ev):

   -72.8043 -72.7962 -44.3393 -44.2594 -44.2314 -44.2236 -44.1731 -44.1651
   -21.1654 -21.0759 -20.5515 -20.5369 -19.5112 -19.5049 -19.4790 -19.4592
   -19.0972 -19.0284 -18.4919 -18.3745 -18.3705 -18.3301 -17.8682 -17.8577
   -12.2125 -12.1401 -12.1077 -12.0865 -11.9534 -11.9421 -11.4338 -11.3686
   -10.3237 -10.3228 -10.2011 -10.1980 -10.1909 -10.1891  -8.7580  -8.6721
    -8.6226  -8.5951  -8.5712  -8.5468  -7.9606  -7.9468  -7.9336  -7.9306
    -7.8972  -7.8747  -7.8663  -7.8447  -7.5990  -7.5223  -6.6822  -6.6755
    -6.4661  -6.4375  -6.3724  -6.3383  -6.2908  -6.2319  -5.8379  -5.7367
    -5.6498  -5.5795  -4.9761  -4.7772  -4.7331  -4.6881  -3.9661  -3.9500
    -2.7839  -1.9777  -1.9595  -1.7572  -1.6038  -1.4576  -1.4453  -1.4340
    -1.3096  -1.2706  -1.1420  -0.6143   0.5461   0.7429   1.0296   1.0848
     1.2709   1.4523   1.5495   1.5614   1.5873   1.9087

 ------ SPIN DOWN ----------


          k = 0.1667 0.2887 0.0000 ( 59267 PWs)   bands (ev):

   -68.6097 -68.6004 -40.2537 -40.1590 -40.0825 -40.0731 -39.9690 -39.9595
   -21.3174 -20.7338 -20.7201 -20.1731 -20.1653 -19.6571 -19.6473 -19.1671
   -18.7741 -18.7564 -18.5218 -18.5186 -18.2647 -18.1512 -18.1378 -17.9151
   -12.5545 -12.2751 -12.2718 -11.8896 -11.8843 -11.7275 -11.2630 -11.2546
   -10.4601 -10.4365 -10.1869 -10.1802  -9.6591  -9.6554  -8.9032  -8.8950
    -8.8921  -8.8360  -8.8269  -8.6637  -8.2639  -8.1229  -8.0723  -7.8991
    -7.8945  -7.5077  -7.5036  -7.3459  -7.3230  -7.2767  -7.2731  -7.0255
    -7.0240  -6.6327  -6.5936  -6.2221  -6.2200  -5.9341  -5.4854  -5.3716
    -5.3321  -5.2671  -4.9714  -4.9634  -4.5727  -4.4156  -4.3936  -4.0394
    -1.3433   0.4579   0.7054   0.9534   1.0713   1.1674   1.2558   1.3175
     1.4013   1.4384   1.5000   1.6443   1.6790   1.7586   1.9392   2.0687
     2.1110   2.1198   2.1909   2.2365   2.3601   2.4313

          k = 0.1667-0.4811 0.0000 ( 59291 PWs)   bands (ev):

   -68.6097 -68.6004 -40.2537 -40.1590 -40.0825 -40.0731 -39.9690 -39.9595
   -21.1902 -20.9759 -20.7926 -20.2309 -19.8725 -19.5333 -19.3856 -19.2430
   -19.0806 -18.8438 -18.7213 -18.6038 -18.2235 -18.1450 -17.9881 -17.7897
   -12.4199 -12.1846 -12.1131 -11.9716 -11.7504 -11.7268 -11.6193 -11.0095
   -10.9607 -10.6934 -10.5870  -9.9306  -9.7609  -9.4032  -9.1794  -8.7399
    -8.6926  -8.6215  -8.4550  -8.4245  -8.2291  -8.1872  -8.1316  -8.1164
    -7.7612  -7.6910  -7.5633  -7.5389  -7.4221  -7.2363  -7.1347  -6.9242
    -6.6900  -6.4496  -6.2433  -6.2253  -6.0341  -5.9966  -5.8517  -5.8052
    -5.5173  -5.4555  -5.2875  -5.0948  -4.5154  -4.3971  -4.1497  -3.8282
    -1.3331   0.4499   0.7013   0.8941   0.9358   1.1154   1.2113   1.2978
     1.4094   1.4511   1.5777   1.7406   1.7639   1.8766   1.9779   2.0777
     2.1290   2.1532   2.2038   2.2465   2.3659   2.4104

          k = 0.1667-0.0962 0.0000 ( 59226 PWs)   bands (ev):

   -68.6097 -68.6004 -40.2537 -40.1590 -40.0825 -40.0731 -39.9690 -39.9595
   -21.3833 -20.6096 -20.4174 -20.3984 -20.0673 -20.0423 -19.8689 -18.8097
   -18.7838 -18.4496 -18.4360 -18.4176 -18.3317 -18.3300 -18.1441 -18.1300
   -12.5763 -12.5728 -12.4765 -11.6541 -11.6406 -11.4928 -11.4917 -10.9956
   -10.9894 -10.0007  -9.9919  -9.7440  -9.4451  -9.4406  -9.2986  -9.2933
    -9.1105  -9.1073  -8.9901  -8.3937  -8.3865  -7.9719  -7.9673  -7.9524
    -7.9116  -7.8376  -7.6751  -7.6354  -7.2109  -7.1467  -7.0284  -6.9579
    -6.9496  -6.9071  -6.6016  -6.5927  -6.3247  -5.4315  -5.3700  -5.2102
    -5.1326  -4.8826  -4.8613  -4.8071  -4.6729  -4.6661  -4.4140  -4.3829
    -1.3534   0.4685   0.7102   0.9022   1.0984   1.1300   1.1696   1.3341
     1.4412   1.4918   1.6338   1.6943   1.7625   1.8393   1.8874   1.9775
     2.0490   2.1335   2.1776   2.1891   2.3232   2.4169

          k =-0.5000-0.8660 0.0000 ( 59292 PWs)   bands (ev):

   -68.6097 -68.6004 -40.2537 -40.1590 -40.0825 -40.0731 -39.9690 -39.9595
   -21.1255 -21.1118 -20.5430 -20.5241 -19.5064 -19.4970 -19.4736 -19.4703
   -19.0613 -19.0526 -18.3945 -18.3905 -18.3798 -18.3783 -17.8644 -17.8477
   -12.1431 -12.1391 -12.1292 -12.1277 -11.9524 -11.9363 -11.3993 -11.3917
   -10.3090 -10.2957 -10.2060 -10.2028 -10.1918 -10.1911  -8.6641  -8.6226
    -8.6169  -8.6104  -8.6085  -8.6020  -7.9385  -7.9352  -7.9226  -7.9221
    -7.8915  -7.8824  -7.8499  -7.8076  -7.5582  -7.5521  -6.6858  -6.6713
    -6.4357  -6.4072  -6.3591  -6.3481  -6.2569  -6.2521  -5.7758  -5.7539
    -5.6148  -5.6074  -4.7938  -4.7891  -4.7527  -4.7458  -3.9567  -3.9187
    -1.3085   0.2024   0.7125   0.9439   1.0298   1.1956   1.2608   1.3510
     1.4486   1.5024   1.5777   1.7286   1.7912   1.9048   1.9365   1.9948
     2.0502   2.1655   2.1750   2.2215   2.4020   2.4305

          k =-0.1667 0.2887 0.0000 ( 59267 PWs)   bands (ev):

   -68.6097 -68.6004 -40.2537 -40.1590 -40.0825 -40.0731 -39.9690 -39.9595
   -21.3174 -20.7338 -20.7201 -20.1731 -20.1653 -19.6571 -19.6473 -19.1671
   -18.7741 -18.7564 -18.5218 -18.5186 -18.2646 -18.1511 -18.1379 -17.9151
   -12.5545 -12.2751 -12.2718 -11.8896 -11.8843 -11.7275 -11.2630 -11.2546
   -10.4602 -10.4365 -10.1869 -10.1803  -9.6591  -9.6554  -8.9032  -8.8950
    -8.8921  -8.8360  -8.8269  -8.6636  -8.2640  -8.1229  -8.0724  -7.8991
    -7.8944  -7.5077  -7.5036  -7.3459  -7.3230  -7.2767  -7.2731  -7.0256
    -7.0240  -6.6327  -6.5936  -6.2221  -6.2199  -5.9340  -5.4855  -5.3716
    -5.3321  -5.2670  -4.9714  -4.9633  -4.5727  -4.4156  -4.3936  -4.0394
    -1.3433   0.4580   0.7054   0.9534   1.0713   1.1674   1.2558   1.3175
     1.4013   1.4384   1.5000   1.6443   1.6790   1.7586   1.9392   2.0688
     2.1109   2.1197   2.1910   2.2365   2.3604   2.4340

          k = 0.3333 0.0000 0.0000 ( 59267 PWs)   bands (ev):

   -68.6097 -68.6004 -40.2537 -40.1590 -40.0825 -40.0731 -39.9690 -39.9595
   -21.3164 -20.7689 -20.6846 -20.1859 -20.1483 -19.6964 -19.6130 -19.1726
   -18.7921 -18.7258 -18.5410 -18.5027 -18.2573 -18.1858 -18.1170 -17.9131
   -12.5519 -12.2879 -12.2605 -11.9047 -11.8749 -11.7231 -11.2871 -11.2305
   -10.4601 -10.4342 -10.2060 -10.1632  -9.6664  -9.6446  -8.9043  -8.9013
    -8.8788  -8.8693  -8.7976  -8.6662  -8.2683  -8.1798  -8.0145  -7.8986
    -7.8903  -7.5149  -7.4949  -7.3687  -7.2931  -7.2879  -7.2590  -7.0419
    -7.0110  -6.6963  -6.5422  -6.2258  -6.2145  -5.9460  -5.4851  -5.3872
    -5.2949  -5.2679  -5.0039  -4.9348  -4.5626  -4.4592  -4.3699  -4.0365
    -1.3275   0.2837   0.7623   0.8873   1.1183   1.1814   1.2139   1.3973
     1.4211   1.4775   1.5021   1.7449   1.7767   1.9040   1.9101   2.0050
     2.0648   2.1393   2.2036   2.2775   2.3411   2.4283

          k =-0.1667-0.4811 0.0000 ( 59291 PWs)   bands (ev):

   -68.6097 -68.6004 -40.2537 -40.1590 -40.0825 -40.0731 -39.9690 -39.9595
   -21.1902 -20.9759 -20.7926 -20.2309 -19.8725 -19.5333 -19.3856 -19.2430
   -19.0806 -18.8438 -18.7213 -18.6038 -18.2235 -18.1450 -17.9881 -17.7897
   -12.4199 -12.1846 -12.1131 -11.9716 -11.7504 -11.7268 -11.6193 -11.0095
   -10.9607 -10.6934 -10.5870  -9.9306  -9.7609  -9.4032  -9.1795  -8.7399
    -8.6926  -8.6215  -8.4549  -8.4245  -8.2291  -8.1872  -8.1317  -8.1164
    -7.7612  -7.6910  -7.5633  -7.5389  -7.4221  -7.2363  -7.1347  -6.9242
    -6.6900  -6.4496  -6.2433  -6.2253  -6.0341  -5.9966  -5.8516  -5.8052
    -5.5173  -5.4555  -5.2875  -5.0948  -4.5154  -4.3971  -4.1497  -3.8282
    -1.3331   0.4498   0.7013   0.8941   0.9358   1.1154   1.2113   1.2978
     1.4094   1.4511   1.5777   1.7406   1.7639   1.8767   1.9780   2.0778
     2.1290   2.1533   2.2038   2.2468   2.3671   2.4118

          k = 0.5000-0.0962 0.0000 ( 59291 PWs)   bands (ev):

   -68.6097 -68.6004 -40.2537 -40.1590 -40.0825 -40.0731 -39.9690 -39.9595
   -21.1839 -20.9930 -20.7817 -20.2270 -19.8711 -19.5404 -19.3966 -19.2319
   -19.0841 -18.8481 -18.6960 -18.6160 -18.2041 -18.1751 -17.9821 -17.7886
   -12.4154 -12.1867 -12.1091 -11.9819 -11.7703 -11.7019 -11.6235 -11.0107
   -10.9552 -10.6895 -10.5929  -9.9256  -9.7619  -9.4050  -9.1781  -8.7250
    -8.6944  -8.6174  -8.4707  -8.4620  -8.2249  -8.1601  -8.1530  -8.0972
    -7.7518  -7.6921  -7.5616  -7.5415  -7.4129  -7.2397  -7.1363  -6.9203
    -6.6908  -6.4678  -6.2644  -6.2237  -6.0123  -5.9949  -5.8501  -5.8114
    -5.5200  -5.4621  -5.2446  -5.1149  -4.4875  -4.4385  -4.1431  -3.8265
    -1.3085   0.2045   0.7121   0.9150   0.9762   1.1493   1.2311   1.2669
     1.4291   1.6125   1.6670   1.7602   1.8649   1.9686   2.0067   2.0435
     2.0581   2.0975   2.2456   2.2574   2.3757   2.4150

          k =-0.3333-0.3849 0.0000 ( 59291 PWs)   bands (ev):

   -68.6097 -68.6004 -40.2537 -40.1590 -40.0825 -40.0731 -39.9690 -39.9595
   -21.1862 -20.9870 -20.7859 -20.2260 -19.8771 -19.5344 -19.3849 -19.2411
   -19.0906 -18.8431 -18.6990 -18.6155 -18.2089 -18.1686 -17.9824 -17.7891
   -12.4183 -12.1803 -12.1149 -11.9777 -11.7530 -11.7231 -11.6218 -11.0105
   -10.9550 -10.6882 -10.5938  -9.9267  -9.7620  -9.4043  -9.1808  -8.7301
    -8.6909  -8.6206  -8.4589  -8.4519  -8.2280  -8.1702  -8.1322  -8.1214
    -7.7521  -7.6891  -7.5730  -7.5309  -7.4102  -7.2398  -7.1380  -6.9352
    -6.6863  -6.4527  -6.2407  -6.2284  -6.0323  -5.9926  -5.8506  -5.8252
    -5.5195  -5.4520  -5.2475  -5.1163  -4.4919  -4.4324  -4.1428  -3.8271
    -1.3170   0.2721   0.6958   0.9228   0.9754   1.1587   1.1948   1.2980
     1.4333   1.5210   1.6447   1.7688   1.8938   1.9175   1.9901   2.0198
     2.0757   2.1211   2.1825   2.2591   2.3719   2.4199

          k = 0.5000 0.0962 0.0000 ( 59291 PWs)   bands (ev):

   -68.6097 -68.6004 -40.2537 -40.1590 -40.0825 -40.0731 -39.9690 -39.9595
   -21.1839 -20.9930 -20.7817 -20.2270 -19.8711 -19.5404 -19.3966 -19.2318
   -19.0841 -18.8481 -18.6960 -18.6161 -18.2041 -18.1751 -17.9821 -17.7886
   -12.4154 -12.1867 -12.1091 -11.9819 -11.7703 -11.7019 -11.6235 -11.0107
   -10.9552 -10.6895 -10.5929  -9.9256  -9.7619  -9.4050  -9.1781  -8.7250
    -8.6944  -8.6174  -8.4707  -8.4620  -8.2249  -8.1600  -8.1530  -8.0971
    -7.7518  -7.6920  -7.5617  -7.5416  -7.4129  -7.2398  -7.1362  -6.9203
    -6.6908  -6.4678  -6.2644  -6.2236  -6.0123  -5.9949  -5.8502  -5.8114
    -5.5200  -5.4621  -5.2446  -5.1149  -4.4875  -4.4385  -4.1431  -3.8265
    -1.3085   0.2045   0.7121   0.9150   0.9762   1.1493   1.2311   1.2670
     1.4291   1.6125   1.6669   1.7602   1.8649   1.9686   2.0068   2.0435
     2.0581   2.0974   2.2460   2.2573   2.3768   2.4149

          k =-0.3333 0.3849 0.0000 ( 59291 PWs)   bands (ev):

   -68.6097 -68.6004 -40.2537 -40.1590 -40.0825 -40.0731 -39.9690 -39.9595
   -21.1862 -20.9870 -20.7859 -20.2260 -19.8771 -19.5344 -19.3849 -19.2411
   -19.0906 -18.8431 -18.6990 -18.6155 -18.2089 -18.1686 -17.9824 -17.7891
   -12.4183 -12.1803 -12.1149 -11.9777 -11.7530 -11.7232 -11.6218 -11.0106
   -10.9549 -10.6882 -10.5938  -9.9267  -9.7620  -9.4042  -9.1808  -8.7301
    -8.6910  -8.6205  -8.4590  -8.4519  -8.2280  -8.1702  -8.1321  -8.1215
    -7.7521  -7.6891  -7.5730  -7.5308  -7.4102  -7.2397  -7.1381  -6.9352
    -6.6864  -6.4527  -6.2407  -6.2284  -6.0323  -5.9927  -5.8505  -5.8252
    -5.5194  -5.4519  -5.2475  -5.1163  -4.4919  -4.4324  -4.1428  -3.8271
    -1.3170   0.2721   0.6958   0.9228   0.9754   1.1587   1.1948   1.2980
     1.4333   1.5210   1.6448   1.7688   1.8938   1.9175   1.9900   2.0198
     2.0757   2.1212   2.1823   2.2591   2.3692   2.4217

          k =-0.1667-0.0962 0.0000 ( 59226 PWs)   bands (ev):

   -68.6097 -68.6004 -40.2537 -40.1590 -40.0825 -40.0731 -39.9690 -39.9595
   -21.3833 -20.6096 -20.4174 -20.3984 -20.0673 -20.0423 -19.8689 -18.8097
   -18.7838 -18.4496 -18.4361 -18.4176 -18.3317 -18.3300 -18.1441 -18.1300
   -12.5763 -12.5728 -12.4765 -11.6541 -11.6406 -11.4928 -11.4917 -10.9956
   -10.9894 -10.0007  -9.9919  -9.7439  -9.4451  -9.4406  -9.2986  -9.2933
    -9.1105  -9.1073  -8.9901  -8.3938  -8.3865  -7.9718  -7.9672  -7.9524
    -7.9115  -7.8377  -7.6751  -7.6354  -7.2109  -7.1467  -7.0285  -6.9579
    -6.9495  -6.9071  -6.6016  -6.5927  -6.3248  -5.4316  -5.3700  -5.2101
    -5.1327  -4.8825  -4.8613  -4.8071  -4.6729  -4.6661  -4.4140  -4.3829
    -1.3534   0.4685   0.7102   0.9022   1.0983   1.1300   1.1696   1.3341
     1.4412   1.4918   1.6338   1.6943   1.7624   1.8392   1.8874   1.9775
     2.0490   2.1333   2.1774   2.1889   2.3224   2.4073

          k =-0.0000-0.1925 0.0000 ( 59226 PWs)   bands (ev):

   -68.6097 -68.6004 -40.2537 -40.1590 -40.0825 -40.0731 -39.9690 -39.9595
   -21.3835 -20.5987 -20.4247 -20.4109 -20.0526 -20.0407 -19.8761 -18.7989
   -18.7859 -18.4964 -18.4262 -18.4153 -18.3131 -18.3121 -18.1471 -18.1373
   -12.5880 -12.5612 -12.4764 -11.6529 -11.6439 -11.5035 -11.4755 -10.9966
   -10.9925  -9.9968  -9.9961  -9.7436  -9.4519  -9.4309  -9.2985  -9.2975
    -9.1094  -9.1071  -8.9909  -8.3910  -8.3883  -7.9712  -7.9625  -7.9283
    -7.9112  -7.8416  -7.6985  -7.6605  -7.1712  -7.1489  -7.0257  -6.9575
    -6.9528  -6.9223  -6.5992  -6.5940  -6.3257  -5.4074  -5.3795  -5.2108
    -5.1319  -4.9520  -4.8346  -4.8135  -4.6518  -4.6378  -4.4135  -4.3978
    -1.3608   0.6216   0.6595   0.9402   1.0642   1.0798   1.2079   1.2921
     1.3844   1.5028   1.5518   1.6079   1.7540   1.8444   1.8662   2.0539
     2.0889   2.1244   2.1820   2.2038   2.2561   2.3882

          k = 0.5000-0.8660 0.0000 ( 59292 PWs)   bands (ev):

   -68.6097 -68.6004 -40.2537 -40.1590 -40.0825 -40.0731 -39.9690 -39.9595
   -21.1255 -21.1118 -20.5430 -20.5241 -19.5064 -19.4970 -19.4736 -19.4703
   -19.0613 -19.0526 -18.3945 -18.3905 -18.3799 -18.3783 -17.8644 -17.8477
   -12.1431 -12.1390 -12.1293 -12.1278 -11.9523 -11.9363 -11.3992 -11.3917
   -10.3090 -10.2957 -10.2060 -10.2028 -10.1918 -10.1911  -8.6641  -8.6226
    -8.6169  -8.6104  -8.6085  -8.6020  -7.9385  -7.9351  -7.9226  -7.9221
    -7.8916  -7.8824  -7.8499  -7.8076  -7.5583  -7.5521  -6.6857  -6.6712
    -6.4357  -6.4072  -6.3591  -6.3481  -6.2568  -6.2521  -5.7759  -5.7539
    -5.6149  -5.6075  -4.7938  -4.7890  -4.7527  -4.7458  -3.9568  -3.9187
    -1.3085   0.2024   0.7125   0.9440   1.0298   1.1957   1.2607   1.3510
     1.4485   1.5023   1.5776   1.7285   1.7913   1.9048   1.9365   1.9946
     2.0502   2.1649   2.1744   2.2214   2.4023   2.4276

          k =-1.0000 0.0000 0.0000 ( 59292 PWs)   bands (ev):

   -68.6097 -68.6004 -40.2537 -40.1590 -40.0825 -40.0731 -39.9690 -39.9595
   -21.1579 -21.0731 -20.5456 -20.5322 -19.5055 -19.4996 -19.4734 -19.4555
   -19.0902 -19.0257 -18.4820 -18.3696 -18.3654 -18.3294 -17.8628 -17.8531
   -12.2049 -12.1362 -12.1053 -12.0853 -11.9499 -11.9390 -11.4281 -11.3664
   -10.3179 -10.3177 -10.1973 -10.1945 -10.1876 -10.1866  -8.7108  -8.6659
    -8.6190  -8.5926  -8.5701  -8.5403  -7.9544  -7.9423  -7.9301  -7.9270
    -7.8748  -7.8719  -7.8535  -7.8259  -7.5942  -7.5207  -6.6786  -6.6724
    -6.4296  -6.4090  -6.3554  -6.3275  -6.2855  -6.2292  -5.8111  -5.7238
    -5.6445  -5.5779  -4.9253  -4.7562  -4.7225  -4.6859  -3.9473  -3.9324
    -1.3409   0.5834   0.7260   0.8926   0.9236   1.0931   1.2923   1.3148
     1.3870   1.4059   1.5438   1.6012   1.7158   1.7771   1.9025   2.0132
     2.0590   2.1786   2.2324   2.2385   2.4155   2.4585

     the Fermi energy is    -1.0694 ev

!    total energy              =   -1133.82454495 Ry

     total all-electron energy =     -6753.500248 Ry
     estimated scf accuracy    <       0.00000002 Ry
     smearing contrib. (-TS)   =      -0.00000000 Ry
     internal energy E=F+TS    =   -1133.82454495 Ry

     The total energy is F=E-TS. E is the sum of the following terms:
     one-electron contribution =   -4018.56329254 Ry
     hartree contribution      =    2037.22448476 Ry
     xc contribution           =    -186.04663251 Ry
     ewald contribution        =    1392.93783434 Ry
     DFT-D3 Dispersion         =      -0.13425675 Ry
     one-center paw contrib.   =    -359.24268226 Ry

     total magnetization       =    10.00 Bohr mag/cell
     absolute magnetization    =    10.01 Bohr mag/cell

     convergence has been achieved in  16 iterations

     Writing output data file ./mytmp/Crdimer0.66.save/
 
     init_run     :     81.22s CPU     84.44s WALL (       1 calls)
     electrons    :   2752.99s CPU   2814.53s WALL (       1 calls)

     Called by init_run:
     wfcinit      :     65.75s CPU     67.76s WALL (       1 calls)
     potinit      :      3.98s CPU      4.15s WALL (       1 calls)
     hinit0       :      3.46s CPU      3.64s WALL (       1 calls)

     Called by electrons:
     c_bands      :   2009.89s CPU   2034.19s WALL (      16 calls)
     sum_band     :    609.20s CPU    631.26s WALL (      16 calls)
     v_of_rho     :     29.39s CPU     30.35s WALL (      17 calls)
     newd         :     88.69s CPU    103.36s WALL (      17 calls)
     PAW_pot      :     10.77s CPU     11.09s WALL (      17 calls)
     mix_rho      :      8.18s CPU      8.20s WALL (      16 calls)

     Called by c_bands:
     init_us_2    :     28.86s CPU     28.90s WALL (     990 calls)
     cegterg      :   1954.71s CPU   1978.75s WALL (     480 calls)

     Called by *egterg:
     cdiaghg      :     17.40s CPU     25.83s WALL (    3048 calls)
     h_psi        :   1383.26s CPU   1396.99s WALL (    3078 calls)
     s_psi        :     86.52s CPU     86.58s WALL (    3078 calls)
     g_psi        :      6.20s CPU      6.22s WALL (    2568 calls)

     Called by h_psi:
     h_psi:calbec :     81.03s CPU     81.28s WALL (    3078 calls)
     vloc_psi     :   1189.76s CPU   1202.62s WALL (    3078 calls)
     add_vuspsi   :     94.95s CPU     95.13s WALL (    3078 calls)

     General routines
     calbec       :    100.49s CPU    100.82s WALL (    3558 calls)
     fft          :     25.84s CPU     27.56s WALL (     419 calls)
     ffts         :      0.73s CPU      0.76s WALL (      66 calls)
     fftw         :    960.05s CPU    974.88s WALL (  273974 calls)
     interpolate  :      2.71s CPU      2.78s WALL (      34 calls)
 
     Parallel routines
 
     PWSCF        :  47m15.98s CPU  48m22.37s WALL

 
   This run was terminated on:   1: 1:35  28Mar2021            

=------------------------------------------------------------------------------=
   JOB DONE.
=------------------------------------------------------------------------------=
