
     Program PWSCF v.6.7MaX starts on 27Mar2021 at 22:37:53 

     This program is part of the open-source Quantum ESPRESSO suite
     for quantum simulation of materials; please cite
         "P. Giannozzi et al., J. Phys.:Condens. Matter 21 395502 (2009);
         "P. Giannozzi et al., J. Phys.:Condens. Matter 29 465901 (2017);
         "P. Giannozzi et al., J. Chem. Phys. 152 154105 (2020);
          URL http://www.quantum-espresso.org", 
     in publications or presentations arising from this work. More details at
     http://www.quantum-espresso.org/quote

     Parallel version (MPI), running on    16 processors

     MPI processes distributed on     1 nodes
     R & G space division:  proc/nbgrp/npool/nimage =      16
     Reading input from Crdimer0.685.scf.in

     Current dimensions of program PWSCF are:
     Max number of different atomic species (ntypx) = 10
     Max number of k-points (npk) =  40000
     Max angular momentum in pseudopotentials (lmaxx) =  3
     file N.pbe-n-kjpaw_psl.1.0.0.UPF: wavefunction(s)  2S renormalized
     file Cr.pbe-spn-kjpaw_psl.1.0.0.UPF: wavefunction(s)  3S 3P 3D renormalized
     file Cr.pbe-spn-kjpaw_psl.1.0.0.UPF: wavefunction(s)  3S 3P 3D renormalized

     --------------------------------------------
     Parameters for DFT-D3 Dispersion Correction:
     --------------------------------------------
       Reference C6 values for interpolation: 

         atom   Coordination number   C6
         B          0.000           214.36
         B          0.971           150.74
         B          1.944           106.23
         B          2.913            62.89
         B          4.586            56.06
         N          0.000            50.54
         N          0.994            44.25
         N          2.014            39.35
         N          2.990            31.16
         Cr1        0.000          1381.48
         Cr1        1.827           571.38
         Cr1       10.619           306.69
         Cr2        0.000          1381.48
         Cr2        1.827           571.38
         Cr2       10.619           306.69

       Values used:

         atom   Coordination number  R0_AB[au]  C6      C8
         B          3.335            3.039     62.89   2506.01
         B          3.342            3.039     62.89   2505.83
         B          3.335            3.039     62.89   2506.01
         B          3.335            3.039     62.89   2506.00
         B          3.336            3.039     62.89   2505.99
         B          3.336            3.039     62.89   2505.98
         N          3.134            2.478     31.22    688.70
         N          3.147            2.478     31.21    688.59
         N          3.134            2.478     31.22    688.70
         N          3.134            2.478     31.22    688.70
         N          3.136            2.478     31.22    688.68
         N          3.135            2.478     31.22    688.68
         N          3.135            2.478     31.22    688.69
         N          3.136            2.478     31.22    688.68
         N          3.134            2.478     31.22    688.70
         B          3.343            3.039     62.89   2505.81
         B          3.342            3.039     62.89   2505.83
         B          3.336            3.039     62.89   2505.98
         B          3.336            3.039     62.89   2505.99
         B          3.335            3.039     62.89   2506.01
         B          3.343            3.039     62.89   2505.81
         N          3.135            2.478     31.22    688.69
         B          3.336            3.039     62.89   2506.00
         B          3.346            3.039     62.88   2505.74
         B          3.335            3.039     62.89   2506.01
         N          3.135            2.478     31.22    688.68
         N          3.147            2.478     31.21    688.59
         N          3.135            2.478     31.22    688.69
         N          3.135            2.478     31.22    688.69
         N          3.134            2.478     31.22    688.70
         N          3.134            2.478     31.22    688.70
         B          3.335            3.039     62.89   2506.01
         Cr1        0.679            3.252   1348.95 124492.97
         Cr2        0.679            3.252   1348.95 124492.97

         Molecular C6 ( Ry / a.u.^6 ) =     78794.46


     Subspace diagonalization in iterative solution of the eigenvalue problem:
     one sub-group per band group will be used
     scalapack distributed-memory algorithm (size of sub-group:  4*  4 procs)

 
     Parallelization info
     --------------------
     sticks:   dense  smooth     PW     G-vecs:    dense   smooth      PW
     Min         706     296     80               108834    29636    4252
     Max         707     297     81               108839    29645    4263
     Sum       11311    4741   1285              1741401   474235   68095
 
     Using Slab Decomposition
 


     bravais-lattice index     =            4
     lattice parameter (alat)  =      18.9275  a.u.
     unit-cell volume          =   10553.3021 (a.u.)^3
     number of atoms/cell      =           34
     number of atomic types    =            4
     number of electrons       =       156.00
     number of Kohn-Sham states=           94
     kinetic-energy cutoff     =      48.0000  Ry
     charge density cutoff     =     457.0000  Ry
     scf convergence threshold =      1.0E-07
     mixing beta               =       0.5000
     number of iterations used =            8  plain     mixing
     Exchange-correlation= SLA  PW   PBX  PBC
                           (   1   4   3   4   0   0   0)

     celldm(1)=  18.927497  celldm(2)=   0.000000  celldm(3)=   1.797125
     celldm(4)=   0.000000  celldm(5)=   0.000000  celldm(6)=   0.000000

     crystal axes: (cart. coord. in units of alat)
               a(1) = (   1.000000   0.000000   0.000000 )  
               a(2) = (  -0.500000   0.866025   0.000000 )  
               a(3) = (   0.000000   0.000000   1.797125 )  

     reciprocal axes: (cart. coord. in units 2 pi/alat)
               b(1) = (  1.000000  0.577350  0.000000 )  
               b(2) = (  0.000000  1.154701  0.000000 )  
               b(3) = (  0.000000  0.000000  0.556444 )  


     PseudoPot. # 1 for B  read from file:
     /home/yueyi/q-e-gpu-qe-gpu-6.7/pseudo/B.pbe-n-kjpaw_psl.1.0.0.UPF
     MD5 check sum: d9c678ba5d3b2fd7b74e61139c9288d8
     Pseudo is Projector augmented-wave + core cor, Zval =  3.0
     Generated using "atomic" code by A. Dal Corso  v.5.1.2
     Shape of augmentation charge: PSQ
     Using radial grid of 1059 points,  4 beta functions with: 
                l(1) =   0
                l(2) =   0
                l(3) =   1
                l(4) =   1
     Q(r) pseudized with 0 coefficients 


     PseudoPot. # 2 for N  read from file:
     /home/yueyi/q-e-gpu-qe-gpu-6.7/pseudo/N.pbe-n-kjpaw_psl.1.0.0.UPF
     MD5 check sum: e0e4e94a9c4025c5b51bd7d8793849bd
     Pseudo is Projector augmented-wave + core cor, Zval =  5.0
     Generated using "atomic" code by A. Dal Corso  v.5.1.2
     Shape of augmentation charge: PSQ
     Using radial grid of 1085 points,  4 beta functions with: 
                l(1) =   0
                l(2) =   0
                l(3) =   1
                l(4) =   1
     Q(r) pseudized with 0 coefficients 


     PseudoPot. # 3 for Cr read from file:
     /home/yueyi/q-e-gpu-qe-gpu-6.7/pseudo/Cr.pbe-spn-kjpaw_psl.1.0.0.UPF
     MD5 check sum: 198f1a2427a48552563eee314eba32ba
     Pseudo is Projector augmented-wave + core cor, Zval = 14.0
     Generated using &quot;atomic&quot; code by A. Dal Corso  v.6.3
     Shape of augmentation charge: PSQ
     Using radial grid of 1183 points,  6 beta functions with: 
                l(1) =   0
                l(2) =   0
                l(3) =   1
                l(4) =   1
                l(5) =   2
                l(6) =   2
     Q(r) pseudized with 0 coefficients 


     PseudoPot. # 4 for Cr read from file:
     /home/yueyi/q-e-gpu-qe-gpu-6.7/pseudo/Cr.pbe-spn-kjpaw_psl.1.0.0.UPF
     MD5 check sum: 198f1a2427a48552563eee314eba32ba
     Pseudo is Projector augmented-wave + core cor, Zval = 14.0
     Generated using &quot;atomic&quot; code by A. Dal Corso  v.6.3
     Shape of augmentation charge: PSQ
     Using radial grid of 1183 points,  6 beta functions with: 
                l(1) =   0
                l(2) =   0
                l(3) =   1
                l(4) =   1
                l(5) =   2
                l(6) =   2
     Q(r) pseudized with 0 coefficients 


     atomic species   valence    mass     pseudopotential
        B              3.00    10.81100     B ( 1.00)
        N              5.00    14.00674     N ( 1.00)
        Cr1           14.00    51.99610     Cr( 1.00)
        Cr2           14.00    51.99610     Cr( 1.00)

     Starting magnetic structure 
     atomic species   magnetization
        B            0.000
        N            0.000
        Cr1          1.000
        Cr2          1.000

     No symmetry found



   Cartesian axes

     site n.     atom                  positions (alat units)
         1           B   tau(   1) = (  -0.1250000   0.2165064   0.8985623  )
         2           B   tau(   2) = (   0.3750000   0.6495191   0.8985623  )
         3           B   tau(   3) = (   0.2500000   0.0000000   0.8985623  )
         4           B   tau(   4) = (   0.7500000   0.0000000   0.8985623  )
         5           B   tau(   5) = (   0.1250000   0.2165064   0.8985623  )
         6           B   tau(   6) = (  -0.3750000   0.6495191   0.8985623  )
         7           N   tau(   7) = (   0.7500005   0.2886748   0.8985623  )
         8           N   tau(   8) = (   0.3750005   0.5051812   0.8985623  )
         9           N   tau(   9) = (   0.3750005   0.0721685   0.8985623  )
        10           N   tau(  10) = (   0.6250005   0.0721685   0.8985623  )
        11           N   tau(  11) = (   0.2500005   0.2886748   0.8985623  )
        12           N   tau(  12) = (   0.6250005   0.5051812   0.8985623  )
        13           N   tau(  13) = (   0.0000005   0.2886748   0.8985623  )
        14           N   tau(  14) = (   0.2500005   0.7216875   0.8985623  )
        15           N   tau(  15) = (  -0.2499995   0.7216875   0.8985623  )
        16           B   tau(  16) = (   0.0000000   0.4330127   0.8985623  )
        17           B   tau(  17) = (   0.1250000   0.6495191   0.8985623  )
        18           B   tau(  18) = (  -0.1250000   0.6495191   0.8985623  )
        19           B   tau(  19) = (   0.3750000   0.2165064   0.8985623  )
        20           B   tau(  20) = (   0.6250000   0.2165064   0.8985623  )
        21           B   tau(  21) = (   0.5000000   0.4330127   0.8985623  )
        22           N   tau(  22) = (   0.5000005   0.2886748   0.8985623  )
        23           B   tau(  23) = (  -0.2500000   0.4330127   0.8985623  )
        24           B   tau(  24) = (   0.2500000   0.4330127   0.8985623  )
        25           B   tau(  25) = (   0.5000000   0.0000000   0.8985623  )
        26           N   tau(  26) = (  -0.1249995   0.5051812   0.8985623  )
        27           N   tau(  27) = (   0.1250005   0.5051812   0.8985623  )
        28           N   tau(  28) = (   0.0000005   0.7216875   0.8985623  )
        29           N   tau(  29) = (   0.5000005   0.7216875   0.8985623  )
        30           N   tau(  30) = (   0.1250005   0.0721685   0.8985623  )
        31           N   tau(  31) = (   0.8750005   0.0721685   0.8985623  )
        32           B   tau(  32) = (   0.0000000   0.0000000   0.8985623  )
        33           Cr1 tau(  33) = (   0.1083335   0.5051812   1.2310304  )
        34           Cr2 tau(  34) = (   0.3916668   0.5051812   1.2310304  )

     number of k points=    15  Gaussian smearing, width (Ry)=  0.0000
                       cart. coord. in units 2pi/alat
        k(    1) = (   0.1666667   0.2886751   0.0000000), wk =   0.0740741
        k(    2) = (   0.1666667  -0.4811252   0.0000000), wk =   0.0740741
        k(    3) = (   0.1666667  -0.0962250   0.0000000), wk =   0.0740741
        k(    4) = (  -0.5000000  -0.8660254   0.0000000), wk =   0.0370370
        k(    5) = (  -0.1666667   0.2886751   0.0000000), wk =   0.0740741
        k(    6) = (   0.3333333   0.0000000   0.0000000), wk =   0.0740741
        k(    7) = (  -0.1666667  -0.4811252   0.0000000), wk =   0.0740741
        k(    8) = (   0.5000000  -0.0962250   0.0000000), wk =   0.0740741
        k(    9) = (  -0.3333333  -0.3849002   0.0000000), wk =   0.0740741
        k(   10) = (   0.5000000   0.0962250   0.0000000), wk =   0.0740741
        k(   11) = (  -0.3333333   0.3849002   0.0000000), wk =   0.0740741
        k(   12) = (  -0.1666667  -0.0962250   0.0000000), wk =   0.0740741
        k(   13) = (  -0.0000000  -0.1924501   0.0000000), wk =   0.0740741
        k(   14) = (   0.5000000  -0.8660254   0.0000000), wk =   0.0370370
        k(   15) = (  -1.0000000   0.0000000   0.0000000), wk =   0.0370370

     Dense  grid:  1741401 G-vectors     FFT dimensions: ( 135, 135, 240)

     Smooth grid:   474235 G-vectors     FFT dimensions: (  90,  90, 160)

     Estimated max dynamical RAM per process >     642.21 MB

     Estimated total dynamical RAM >      10.03 GB
     Generating pointlists ...
     new r_m :   0.0595 (alat units)  1.1269 (a.u.) for type    1
     new r_m :   0.0595 (alat units)  1.1269 (a.u.) for type    2
     new r_m :   0.1169 (alat units)  2.2122 (a.u.) for type    3
     new r_m :   0.1169 (alat units)  2.2122 (a.u.) for type    4

     Initial potential from superposition of free atoms

     starting charge  155.99382, renormalised to  156.00000

     negative rho (up, down):  6.503E-03 4.655E-04
     Starting wfcs are  148 randomized atomic wfcs
     Checking if some PAW data can be deallocated... 

     total cpu time spent up to now is      102.4 secs

     Self-consistent Calculation

     iteration #  1     ecut=    48.00 Ry     beta= 0.50
     Davidson diagonalization with overlap
     ethr =  1.00E-02,  avg # of iterations =  2.8

     negative rho (up, down):  4.729E-03 2.989E-03

     total cpu time spent up to now is      305.6 secs

     total energy              =   -1130.70919860 Ry
     estimated scf accuracy    <      11.42774363 Ry

     total magnetization       =    12.00 Bohr mag/cell
     absolute magnetization    =    12.18 Bohr mag/cell

     iteration #  2     ecut=    48.00 Ry     beta= 0.50
     Davidson diagonalization with overlap
     ethr =  7.33E-03,  avg # of iterations =  3.4

     negative rho (up, down):  1.144E-02 1.101E-02

     total cpu time spent up to now is      491.9 secs

     total energy              =   -1132.24118238 Ry
     estimated scf accuracy    <       5.45662490 Ry

     total magnetization       =     8.67 Bohr mag/cell
     absolute magnetization    =     9.37 Bohr mag/cell

     iteration #  3     ecut=    48.00 Ry     beta= 0.50
     Davidson diagonalization with overlap
     ethr =  3.50E-03,  avg # of iterations =  7.2

     negative rho (up, down):  9.323E-03 1.144E-02

     total cpu time spent up to now is      694.5 secs

     total energy              =   -1133.25339458 Ry
     estimated scf accuracy    <       2.03141524 Ry

     total magnetization       =    10.89 Bohr mag/cell
     absolute magnetization    =    11.01 Bohr mag/cell

     iteration #  4     ecut=    48.00 Ry     beta= 0.50
     Davidson diagonalization with overlap
     ethr =  1.30E-03,  avg # of iterations =  4.1

     negative rho (up, down):  7.349E-03 6.579E-03

     total cpu time spent up to now is      858.5 secs

     total energy              =   -1133.78899027 Ry
     estimated scf accuracy    <       0.25712498 Ry

     total magnetization       =    10.59 Bohr mag/cell
     absolute magnetization    =    10.68 Bohr mag/cell

     iteration #  5     ecut=    48.00 Ry     beta= 0.50
     Davidson diagonalization with overlap
     c_bands:  1 eigenvalues not converged
     ethr =  1.65E-04,  avg # of iterations = 11.2

     negative rho (up, down):  4.156E-03 4.316E-03

     total cpu time spent up to now is     1061.2 secs

     total energy              =   -1133.81256884 Ry
     estimated scf accuracy    <       0.22306808 Ry

     total magnetization       =    10.00 Bohr mag/cell
     absolute magnetization    =    10.04 Bohr mag/cell

     iteration #  6     ecut=    48.00 Ry     beta= 0.50
     Davidson diagonalization with overlap
     ethr =  1.43E-04,  avg # of iterations =  3.4

     negative rho (up, down):  3.967E-03 3.740E-03

     total cpu time spent up to now is     1218.0 secs

     total energy              =   -1133.81588531 Ry
     estimated scf accuracy    <       0.06050814 Ry

     total magnetization       =    10.00 Bohr mag/cell
     absolute magnetization    =    10.04 Bohr mag/cell

     iteration #  7     ecut=    48.00 Ry     beta= 0.50
     Davidson diagonalization with overlap
     ethr =  3.88E-05,  avg # of iterations =  8.6

     negative rho (up, down):  3.494E-03 3.690E-03

     total cpu time spent up to now is     1418.0 secs

     total energy              =   -1133.82374563 Ry
     estimated scf accuracy    <       0.02683545 Ry

     total magnetization       =    10.00 Bohr mag/cell
     absolute magnetization    =    10.04 Bohr mag/cell

     iteration #  8     ecut=    48.00 Ry     beta= 0.50
     Davidson diagonalization with overlap
     ethr =  1.72E-05,  avg # of iterations =  7.7

     negative rho (up, down):  3.116E-03 3.690E-03

     total cpu time spent up to now is     1600.4 secs

     total energy              =   -1133.82633126 Ry
     estimated scf accuracy    <       0.00253038 Ry

     total magnetization       =    10.00 Bohr mag/cell
     absolute magnetization    =    10.03 Bohr mag/cell

     iteration #  9     ecut=    48.00 Ry     beta= 0.50
     Davidson diagonalization with overlap
     ethr =  1.62E-06,  avg # of iterations =  8.2

     negative rho (up, down):  3.072E-03 3.718E-03

     total cpu time spent up to now is     1792.2 secs

     total energy              =   -1133.82688356 Ry
     estimated scf accuracy    <       0.00040096 Ry

     total magnetization       =    10.00 Bohr mag/cell
     absolute magnetization    =    10.02 Bohr mag/cell

     iteration # 10     ecut=    48.00 Ry     beta= 0.50
     Davidson diagonalization with overlap
     ethr =  2.57E-07,  avg # of iterations =  2.9

     negative rho (up, down):  3.067E-03 3.734E-03

     total cpu time spent up to now is     1949.8 secs

     total energy              =   -1133.82696239 Ry
     estimated scf accuracy    <       0.00006177 Ry

     total magnetization       =    10.00 Bohr mag/cell
     absolute magnetization    =    10.01 Bohr mag/cell

     iteration # 11     ecut=    48.00 Ry     beta= 0.50
     Davidson diagonalization with overlap
     ethr =  3.96E-08,  avg # of iterations =  3.7

     negative rho (up, down):  3.067E-03 3.749E-03

     total cpu time spent up to now is     2114.7 secs

     total energy              =   -1133.82698957 Ry
     estimated scf accuracy    <       0.00001375 Ry

     total magnetization       =    10.00 Bohr mag/cell
     absolute magnetization    =    10.01 Bohr mag/cell

     iteration # 12     ecut=    48.00 Ry     beta= 0.50
     Davidson diagonalization with overlap
     ethr =  8.81E-09,  avg # of iterations =  4.3

     negative rho (up, down):  3.062E-03 3.752E-03

     total cpu time spent up to now is     2282.3 secs

     total energy              =   -1133.82699644 Ry
     estimated scf accuracy    <       0.00000163 Ry

     total magnetization       =    10.00 Bohr mag/cell
     absolute magnetization    =    10.01 Bohr mag/cell

     iteration # 13     ecut=    48.00 Ry     beta= 0.50
     Davidson diagonalization with overlap
     ethr =  1.04E-09,  avg # of iterations =  4.1

     negative rho (up, down):  3.060E-03 3.759E-03

     total cpu time spent up to now is     2454.5 secs

     total energy              =   -1133.82699813 Ry
     estimated scf accuracy    <       0.00000048 Ry

     total magnetization       =    10.00 Bohr mag/cell
     absolute magnetization    =    10.01 Bohr mag/cell

     iteration # 14     ecut=    48.00 Ry     beta= 0.50
     Davidson diagonalization with overlap
     ethr =  3.06E-10,  avg # of iterations =  4.7

     negative rho (up, down):  3.059E-03 3.760E-03

     total cpu time spent up to now is     2635.9 secs

     total energy              =   -1133.82699879 Ry
     estimated scf accuracy    <       0.00000016 Ry

     total magnetization       =    10.00 Bohr mag/cell
     absolute magnetization    =    10.01 Bohr mag/cell

     iteration # 15     ecut=    48.00 Ry     beta= 0.50
     Davidson diagonalization with overlap
     ethr =  1.01E-10,  avg # of iterations =  4.1

     negative rho (up, down):  3.058E-03 3.761E-03
 
     Magnetic moment per site:
     atom:    1    charge:    0.8805    magn:    0.0001    constr:    0.0000
     atom:    2    charge:    0.8801    magn:    0.0001    constr:    0.0000
     atom:    3    charge:    0.8804    magn:    0.0000    constr:    0.0000
     atom:    4    charge:    0.8803    magn:    0.0001    constr:    0.0000
     atom:    5    charge:    0.8802    magn:    0.0001    constr:    0.0000
     atom:    6    charge:    0.8807    magn:    0.0000    constr:    0.0000
     atom:    7    charge:    2.8610    magn:    0.0002    constr:    0.0000
     atom:    8    charge:    2.8609    magn:    0.0054    constr:    0.0000
     atom:    9    charge:    2.8610    magn:    0.0001    constr:    0.0000
     atom:   10    charge:    2.8610    magn:    0.0001    constr:    0.0000
     atom:   11    charge:    2.8607    magn:    0.0013    constr:    0.0000
     atom:   12    charge:    2.8609    magn:    0.0010    constr:    0.0000
     atom:   13    charge:    2.8598    magn:    0.0013    constr:    0.0000
     atom:   14    charge:    2.8596    magn:    0.0015    constr:    0.0000
     atom:   15    charge:    2.8600    magn:    0.0001    constr:    0.0000
     atom:   16    charge:    0.8803    magn:   -0.0000    constr:    0.0000
     atom:   17    charge:    0.8797    magn:    0.0001    constr:    0.0000
     atom:   18    charge:    0.8804    magn:    0.0000    constr:    0.0000
     atom:   19    charge:    0.8796    magn:    0.0001    constr:    0.0000
     atom:   20    charge:    0.8799    magn:    0.0001    constr:    0.0000
     atom:   21    charge:    0.8801    magn:   -0.0000    constr:    0.0000
     atom:   22    charge:    2.8611    magn:    0.0014    constr:    0.0000
     atom:   23    charge:    0.8804    magn:    0.0001    constr:    0.0000
     atom:   24    charge:    0.8790    magn:    0.0002    constr:    0.0000
     atom:   25    charge:    0.8800    magn:    0.0001    constr:    0.0000
     atom:   26    charge:    2.8598    magn:    0.0010    constr:    0.0000
     atom:   27    charge:    2.8597    magn:    0.0054    constr:    0.0000
     atom:   28    charge:    2.8598    magn:    0.0012    constr:    0.0000
     atom:   29    charge:    2.8596    magn:    0.0012    constr:    0.0000
     atom:   30    charge:    2.8597    magn:    0.0001    constr:    0.0000
     atom:   31    charge:    2.8596    magn:    0.0001    constr:    0.0000
     atom:   32    charge:    0.8803    magn:    0.0001    constr:    0.0000
     atom:   33    charge:   12.5141    magn:    4.2407    constr:    0.0000
     atom:   34    charge:   12.5142    magn:    4.2409    constr:    0.0000

     total cpu time spent up to now is     2810.7 secs

     End of self-consistent calculation

 ------ SPIN UP ------------


          k = 0.1667 0.2887 0.0000 ( 59267 PWs)   bands (ev):

   -72.9778 -72.9697 -44.5377 -44.4581 -44.3694 -44.3616 -44.3471 -44.3392
   -21.1683 -20.5839 -20.5769 -20.0238 -20.0217 -19.5118 -19.5044 -19.0221
   -18.6184 -18.6138 -18.3783 -18.3766 -18.1158 -18.0092 -18.0041 -17.7733
   -12.4062 -12.1264 -12.1256 -11.7441 -11.7408 -11.5813 -11.1158 -11.1107
   -10.3143 -10.2906 -10.0408 -10.0378  -9.5124  -9.5106  -8.7478  -8.7469
    -8.7379  -8.6912  -8.6840  -8.5200  -8.1211  -7.9483  -7.9327  -7.7521
    -7.7512  -7.3612  -7.3601  -7.1839  -7.1727  -7.1326  -7.1298  -6.8824
    -6.8816  -6.4687  -6.4578  -6.0776  -6.0765  -5.7816  -5.3422  -5.1984
    -5.1881  -5.1242  -4.8236  -4.8177  -4.4152  -4.2698  -4.2620  -3.8951
    -2.9984  -2.1235  -2.1141  -1.9368  -1.7227  -1.6825  -1.5560  -1.5526
    -1.4693  -1.4608  -1.4317  -0.8279   0.6058   0.8444   0.9317   1.2587
     1.3502   1.5447   1.5865   1.6459   1.6789   1.7558

          k = 0.1667-0.4811 0.0000 ( 59291 PWs)   bands (ev):

   -72.9778 -72.9697 -44.5377 -44.4581 -44.3694 -44.3616 -44.3471 -44.3392
   -21.0366 -20.8364 -20.6444 -20.0825 -19.7272 -19.3891 -19.2401 -19.0969
   -18.9373 -18.7020 -18.5599 -18.4704 -18.0665 -18.0191 -17.8454 -17.6475
   -12.2700 -12.0349 -11.9669 -11.8304 -11.6035 -11.5805 -11.4762 -10.8648
   -10.8120 -10.5454 -10.4478  -9.7821  -9.6168  -9.2593  -9.0339  -8.5635
    -8.5457  -8.4760  -8.3132  -8.2828  -8.0850  -8.0285  -7.9868  -7.9738
    -7.6106  -7.5469  -7.4174  -7.3991  -7.2618  -7.0948  -6.9917  -6.7705
    -6.5450  -6.2991  -6.0880  -6.0817  -5.8833  -5.8524  -5.7072  -5.6561
    -5.3759  -5.3095  -5.1097  -4.9627  -4.3472  -4.2741  -4.0045  -3.6836
    -2.9959  -2.1236  -2.1139  -1.9339  -1.7222  -1.6822  -1.5571  -1.5542
    -1.4698  -1.4606  -1.4318  -0.8312   0.5207   0.8453   0.9659   1.1602
     1.2793   1.3238   1.4507   1.8780   1.9601   2.1318

          k = 0.1667-0.0962 0.0000 ( 59226 PWs)   bands (ev):

   -72.9778 -72.9697 -44.5377 -44.4581 -44.3695 -44.3616 -44.3471 -44.3392
   -21.2349 -20.4556 -20.2692 -20.2623 -19.9091 -19.9030 -19.7305 -18.6507
   -18.6442 -18.2952 -18.2931 -18.2788 -18.1883 -18.1877 -18.0024 -17.9962
   -12.4273 -12.4266 -12.3304 -11.5038 -11.4997 -11.3460 -11.3458 -10.8490
   -10.8470  -9.8522  -9.8490  -9.5987  -9.2969  -9.2957  -9.1527  -9.1514
    -8.9652  -8.9642  -8.8271  -8.2465  -8.2442  -7.8241  -7.8233  -7.7783
    -7.7677  -7.6944  -7.5207  -7.4969  -7.0327  -7.0044  -6.8824  -6.8119
    -6.8099  -6.7693  -6.4552  -6.4520  -6.1815  -5.2546  -5.2287  -5.0672
    -4.9891  -4.7179  -4.7122  -4.6643  -4.5263  -4.5229  -4.2681  -4.2500
    -3.0010  -2.1234  -2.1142  -1.9398  -1.7239  -1.6828  -1.5551  -1.5511
    -1.4686  -1.4611  -1.4315  -0.8244   0.7166   0.8138   0.9035   1.2778
     1.3241   1.4043   1.6169   1.6637   1.7104   1.9295

          k =-0.5000-0.8660 0.0000 ( 59292 PWs)   bands (ev):

   -72.9778 -72.9697 -44.5377 -44.4581 -44.3695 -44.3617 -44.3470 -44.3392
   -20.9735 -20.9657 -20.3930 -20.3865 -19.3449 -19.3426 -19.3357 -19.3346
   -18.9165 -18.9116 -18.2467 -18.2462 -18.2379 -18.2372 -17.7181 -17.7118
   -11.9915 -11.9908 -11.9836 -11.9829 -11.8007 -11.7963 -11.2541 -11.2489
   -10.1580 -10.1545 -10.0565 -10.0559 -10.0517 -10.0511  -8.4781  -8.4716
    -8.4712  -8.4661  -8.4642  -8.4601  -7.7871  -7.7868  -7.7828  -7.7820
    -7.7465  -7.7419  -7.6913  -7.6668  -7.4163  -7.4085  -6.5348  -6.5305
    -6.2532  -6.2402  -6.2165  -6.2111  -6.1156  -6.1101  -5.6207  -5.6146
    -5.4706  -5.4645  -4.6277  -4.6247  -4.6192  -4.6167  -3.8029  -3.7844
    -2.9840  -2.1225  -2.1120  -1.9350  -1.7226  -1.6821  -1.5586  -1.5550
    -1.4761  -1.4642  -1.4372  -0.9456   0.6902   0.9980   1.1301   1.1954
     1.3585   1.6046   1.6573   1.6801   1.7309   1.7444

          k =-0.1667 0.2887 0.0000 ( 59267 PWs)   bands (ev):

   -72.9778 -72.9697 -44.5377 -44.4581 -44.3694 -44.3616 -44.3471 -44.3392
   -21.1683 -20.5839 -20.5768 -20.0238 -20.0217 -19.5118 -19.5044 -19.0221
   -18.6185 -18.6137 -18.3783 -18.3766 -18.1157 -18.0093 -18.0041 -17.7733
   -12.4062 -12.1264 -12.1256 -11.7441 -11.7408 -11.5813 -11.1158 -11.1106
   -10.3143 -10.2906 -10.0408 -10.0378  -9.5124  -9.5105  -8.7477  -8.7469
    -8.7379  -8.6913  -8.6840  -8.5199  -8.1212  -7.9483  -7.9327  -7.7521
    -7.7511  -7.3612  -7.3601  -7.1840  -7.1727  -7.1326  -7.1297  -6.8825
    -6.8817  -6.4687  -6.4578  -6.0776  -6.0765  -5.7816  -5.3423  -5.1984
    -5.1881  -5.1241  -4.8236  -4.8177  -4.4153  -4.2698  -4.2620  -3.8951
    -2.9984  -2.1235  -2.1141  -1.9368  -1.7227  -1.6825  -1.5560  -1.5526
    -1.4693  -1.4608  -1.4317  -0.8279   0.6058   0.8444   0.9317   1.2588
     1.3502   1.5447   1.5865   1.6459   1.6789   1.7558

          k = 0.3333 0.0000 0.0000 ( 59267 PWs)   bands (ev):

   -72.9778 -72.9697 -44.5377 -44.4581 -44.3695 -44.3616 -44.3471 -44.3392
   -21.1681 -20.5984 -20.5622 -20.0296 -20.0152 -19.5266 -19.4905 -19.0231
   -18.6300 -18.5999 -18.3853 -18.3703 -18.1138 -18.0242 -17.9923 -17.7729
   -12.4058 -12.1309 -12.1214 -11.7492 -11.7367 -11.5805 -11.1255 -11.1010
   -10.3142 -10.2902 -10.0491 -10.0299  -9.5159  -9.5064  -8.7511  -8.7457
    -8.7342  -8.7036  -8.6724  -8.5204  -8.1220  -7.9844  -7.8964  -7.7529
    -7.7494  -7.3654  -7.3556  -7.1983  -7.1559  -7.1383  -7.1238  -6.8886
    -6.8762  -6.5057  -6.4240  -6.0795  -6.0743  -5.7844  -5.3422  -5.2150
    -5.1667  -5.1243  -4.8385  -4.8033  -4.4119  -4.2936  -4.2447  -3.8939
    -2.9905  -2.1228  -2.1125  -1.9377  -1.7236  -1.6824  -1.5561  -1.5538
    -1.4733  -1.4633  -1.4352  -0.9075   0.7328   0.9401   1.0858   1.2701
     1.3652   1.5447   1.5956   1.6002   1.6453   1.7884

          k =-0.1667-0.4811 0.0000 ( 59291 PWs)   bands (ev):

   -72.9778 -72.9697 -44.5377 -44.4581 -44.3694 -44.3616 -44.3471 -44.3392
   -21.0366 -20.8364 -20.6444 -20.0825 -19.7272 -19.3891 -19.2401 -19.0969
   -18.9373 -18.7020 -18.5599 -18.4704 -18.0665 -18.0190 -17.8454 -17.6475
   -12.2700 -12.0348 -11.9669 -11.8304 -11.6035 -11.5805 -11.4762 -10.8648
   -10.8120 -10.5454 -10.4477  -9.7821  -9.6167  -9.2594  -9.0339  -8.5635
    -8.5456  -8.4760  -8.3131  -8.2828  -8.0849  -8.0285  -7.9869  -7.9739
    -7.6106  -7.5470  -7.4173  -7.3991  -7.2618  -7.0948  -6.9917  -6.7704
    -6.5450  -6.2991  -6.0880  -6.0818  -5.8833  -5.8523  -5.7072  -5.6561
    -5.3759  -5.3095  -5.1097  -4.9627  -4.3472  -4.2741  -4.0045  -3.6836
    -2.9959  -2.1236  -2.1139  -1.9339  -1.7222  -1.6822  -1.5571  -1.5542
    -1.4698  -1.4606  -1.4318  -0.8312   0.5207   0.8453   0.9659   1.1602
     1.2793   1.3237   1.4507   1.8780   1.9601   2.1318

          k = 0.5000-0.0962 0.0000 ( 59291 PWs)   bands (ev):

   -72.9778 -72.9697 -44.5377 -44.4581 -44.3694 -44.3616 -44.3471 -44.3392
   -21.0354 -20.8397 -20.6424 -20.0818 -19.7270 -19.3902 -19.2425 -19.0947
   -18.9379 -18.7028 -18.5548 -18.4731 -18.0603 -18.0274 -17.8440 -17.6473
   -12.2692 -12.0352 -11.9662 -11.8322 -11.6096 -11.5736 -11.4770 -10.8651
   -10.8109 -10.5446 -10.4488  -9.7812  -9.6169  -9.2597  -9.0337  -8.5585
    -8.5458  -8.4751  -8.3153  -8.2968  -8.0842  -8.0197  -7.9941  -7.9671
    -7.6088  -7.5472  -7.4170  -7.3995  -7.2593  -7.0954  -6.9921  -6.7694
    -6.5453  -6.3037  -6.0950  -6.0815  -5.8755  -5.8522  -5.7068  -5.6583
    -5.3764  -5.3108  -5.0974  -4.9696  -4.3345  -4.2914  -4.0019  -3.6828
    -2.9840  -2.1225  -2.1120  -1.9350  -1.7229  -1.6821  -1.5586  -1.5550
    -1.4761  -1.4642  -1.4372  -0.9454   0.6781   0.9976   1.1240   1.2221
     1.3076   1.3581   1.5226   1.7397   1.8289   1.9607

          k =-0.3333-0.3849 0.0000 ( 59291 PWs)   bands (ev):

   -72.9778 -72.9697 -44.5377 -44.4581 -44.3694 -44.3616 -44.3471 -44.3392
   -21.0358 -20.8385 -20.6432 -20.0816 -19.7280 -19.3893 -19.2402 -19.0963
   -18.9392 -18.7019 -18.5554 -18.4729 -18.0615 -18.0260 -17.8441 -17.6474
   -12.2697 -12.0341 -11.9672 -11.8315 -11.6040 -11.5798 -11.4767 -10.8650
   -10.8109 -10.5443 -10.4490  -9.7814  -9.6170  -9.2596  -9.0342  -8.5601
    -8.5453  -8.4759  -8.3138  -8.2917  -8.0847  -8.0233  -7.9868  -7.9750
    -7.6089  -7.5466  -7.4204  -7.3963  -7.2585  -7.0954  -6.9923  -6.7734
    -6.5444  -6.2999  -6.0879  -6.0823  -5.8818  -5.8517  -5.7069  -5.6618
    -5.3763  -5.3078  -5.0976  -4.9707  -4.3355  -4.2898  -4.0017  -3.6832
    -2.9880  -2.1229  -2.1128  -1.9346  -1.7225  -1.6822  -1.5577  -1.5551
    -1.4739  -1.4630  -1.4353  -0.9106   0.6234   0.9778   1.0657   1.1742
     1.2958   1.3945   1.4291   1.8058   1.8898   1.9651

          k = 0.5000 0.0962 0.0000 ( 59291 PWs)   bands (ev):

   -72.9778 -72.9697 -44.5377 -44.4581 -44.3694 -44.3616 -44.3471 -44.3392
   -21.0354 -20.8397 -20.6424 -20.0818 -19.7270 -19.3902 -19.2425 -19.0947
   -18.9379 -18.7028 -18.5548 -18.4731 -18.0603 -18.0275 -17.8440 -17.6473
   -12.2692 -12.0352 -11.9661 -11.8322 -11.6096 -11.5735 -11.4770 -10.8651
   -10.8109 -10.5446 -10.4489  -9.7812  -9.6169  -9.2597  -9.0337  -8.5585
    -8.5458  -8.4752  -8.3152  -8.2968  -8.0842  -8.0197  -7.9941  -7.9670
    -7.6088  -7.5472  -7.4170  -7.3996  -7.2593  -7.0955  -6.9920  -6.7694
    -6.5452  -6.3037  -6.0950  -6.0814  -5.8755  -5.8522  -5.7069  -5.6583
    -5.3764  -5.3108  -5.0974  -4.9696  -4.3345  -4.2914  -4.0019  -3.6829
    -2.9840  -2.1225  -2.1120  -1.9350  -1.7229  -1.6821  -1.5586  -1.5550
    -1.4761  -1.4642  -1.4372  -0.9454   0.6781   0.9976   1.1240   1.2222
     1.3076   1.3581   1.5226   1.7397   1.8289   1.9606

          k =-0.3333 0.3849 0.0000 ( 59291 PWs)   bands (ev):

   -72.9778 -72.9697 -44.5377 -44.4581 -44.3694 -44.3616 -44.3471 -44.3392
   -21.0358 -20.8385 -20.6432 -20.0816 -19.7280 -19.3893 -19.2402 -19.0963
   -18.9392 -18.7019 -18.5554 -18.4729 -18.0614 -18.0260 -17.8441 -17.6474
   -12.2697 -12.0341 -11.9672 -11.8315 -11.6040 -11.5798 -11.4767 -10.8651
   -10.8109 -10.5443 -10.4490  -9.7814  -9.6169  -9.2596  -9.0342  -8.5601
    -8.5453  -8.4759  -8.3139  -8.2917  -8.0847  -8.0233  -7.9867  -7.9750
    -7.6089  -7.5466  -7.4204  -7.3962  -7.2585  -7.0954  -6.9924  -6.7734
    -6.5444  -6.2999  -6.0879  -6.0824  -5.8818  -5.8517  -5.7069  -5.6618
    -5.3762  -5.3078  -5.0976  -4.9707  -4.3356  -4.2898  -4.0017  -3.6832
    -2.9880  -2.1229  -2.1128  -1.9346  -1.7225  -1.6822  -1.5577  -1.5551
    -1.4739  -1.4630  -1.4353  -0.9106   0.6234   0.9778   1.0657   1.1742
     1.2958   1.3945   1.4291   1.8058   1.8897   1.9650

          k =-0.1667-0.0962 0.0000 ( 59226 PWs)   bands (ev):

   -72.9778 -72.9697 -44.5377 -44.4581 -44.3695 -44.3616 -44.3471 -44.3392
   -21.2349 -20.4556 -20.2692 -20.2623 -19.9091 -19.9030 -19.7304 -18.6507
   -18.6441 -18.2952 -18.2931 -18.2788 -18.1883 -18.1877 -18.0024 -17.9962
   -12.4273 -12.4266 -12.3303 -11.5038 -11.4996 -11.3460 -11.3459 -10.8490
   -10.8470  -9.8522  -9.8490  -9.5987  -9.2969  -9.2956  -9.1527  -9.1515
    -8.9651  -8.9642  -8.8271  -8.2466  -8.2442  -7.8241  -7.8233  -7.7783
    -7.7677  -7.6944  -7.5207  -7.4969  -7.0327  -7.0044  -6.8825  -6.8119
    -6.8099  -6.7693  -6.4551  -6.4519  -6.1816  -5.2546  -5.2287  -5.0671
    -4.9892  -4.7179  -4.7122  -4.6644  -4.5263  -4.5229  -4.2681  -4.2500
    -3.0010  -2.1234  -2.1142  -1.9398  -1.7239  -1.6828  -1.5551  -1.5511
    -1.4686  -1.4611  -1.4315  -0.8244   0.7166   0.8138   0.9035   1.2777
     1.3241   1.4044   1.6169   1.6637   1.7104   1.9295

          k =-0.0000-0.1925 0.0000 ( 59226 PWs)   bands (ev):

   -72.9778 -72.9697 -44.5377 -44.4580 -44.3695 -44.3616 -44.3471 -44.3392
   -21.2350 -20.4536 -20.2717 -20.2635 -19.9082 -19.9007 -19.7319 -18.6502
   -18.6430 -18.3107 -18.2880 -18.2773 -18.1856 -18.1809 -18.0042 -17.9968
   -12.4318 -12.4223 -12.3302 -11.5047 -11.4991 -11.3510 -11.3398 -10.8496
   -10.8471  -9.8512  -9.8501  -9.5986  -9.2998  -9.2921  -9.1528  -9.1521
    -8.9652  -8.9639  -8.8274  -8.2462  -8.2443  -7.8252  -7.8215  -7.7731
    -7.7645  -7.6952  -7.5274  -7.5051  -7.0216  -7.0034  -6.8819  -6.8128
    -6.8096  -6.7749  -6.4552  -6.4516  -6.1818  -5.2481  -5.2313  -5.0672
    -4.9891  -4.7454  -4.6993  -4.6665  -4.5234  -4.5078  -4.2678  -4.2552
    -3.0048  -2.1238  -2.1150  -1.9393  -1.7234  -1.6828  -1.5554  -1.5504
    -1.4667  -1.4598  -1.4298  -0.7781   0.6190   0.7542   0.8829   1.2668
     1.2920   1.4510   1.6352   1.6432   1.6937   2.0693

          k = 0.5000-0.8660 0.0000 ( 59292 PWs)   bands (ev):

   -72.9778 -72.9697 -44.5377 -44.4581 -44.3695 -44.3617 -44.3470 -44.3392
   -20.9735 -20.9657 -20.3930 -20.3865 -19.3449 -19.3426 -19.3357 -19.3346
   -18.9165 -18.9115 -18.2467 -18.2463 -18.2378 -18.2372 -17.7181 -17.7118
   -11.9916 -11.9908 -11.9835 -11.9829 -11.8007 -11.7963 -11.2540 -11.2488
   -10.1581 -10.1545 -10.0565 -10.0559 -10.0517 -10.0511  -8.4781  -8.4716
    -8.4712  -8.4661  -8.4642  -8.4601  -7.7871  -7.7868  -7.7828  -7.7820
    -7.7466  -7.7419  -7.6913  -7.6668  -7.4163  -7.4085  -6.5348  -6.5305
    -6.2532  -6.2402  -6.2165  -6.2111  -6.1156  -6.1100  -5.6207  -5.6146
    -5.4707  -5.4646  -4.6277  -4.6246  -4.6191  -4.6167  -3.8029  -3.7844
    -2.9840  -2.1225  -2.1120  -1.9350  -1.7226  -1.6821  -1.5586  -1.5550
    -1.4761  -1.4642  -1.4372  -0.9456   0.6901   0.9980   1.1301   1.1954
     1.3585   1.6046   1.6572   1.6801   1.7308   1.7444

          k =-1.0000 0.0000 0.0000 ( 59292 PWs)   bands (ev):

   -72.9778 -72.9697 -44.5377 -44.4581 -44.3695 -44.3616 -44.3471 -44.3392
   -20.9872 -20.9508 -20.3948 -20.3867 -19.3476 -19.3445 -19.3376 -19.3257
   -18.9293 -18.8992 -18.2835 -18.2357 -18.2340 -18.2152 -17.7188 -17.7119
   -12.0172 -11.9887 -11.9758 -11.9658 -11.8020 -11.7950 -11.2650 -11.2385
   -10.1603 -10.1585 -10.0559 -10.0542 -10.0508 -10.0491  -8.5120  -8.4913
    -8.4712  -8.4593  -8.4487  -8.4223  -7.7932  -7.7864  -7.7845  -7.7832
    -7.7413  -7.7394  -7.6930  -7.6724  -7.4293  -7.3965  -6.5342  -6.5298
    -6.2562  -6.2410  -6.2178  -6.1975  -6.1260  -6.1010  -5.6431  -5.5952
    -5.4829  -5.4525  -4.6985  -4.6161  -4.5975  -4.5767  -3.8002  -3.7893
    -2.9998  -2.1240  -2.1142  -1.9335  -1.7220  -1.6823  -1.5571  -1.5535
    -1.4679  -1.4594  -1.4302  -0.7856   0.4802   0.7347   0.9533   1.1799
     1.2094   1.6289   1.6385   1.6839   1.6990   1.9417

 ------ SPIN DOWN ----------


          k = 0.1667 0.2887 0.0000 ( 59267 PWs)   bands (ev):

   -68.7776 -68.7684 -40.4787 -40.3843 -40.1807 -40.1714 -40.1401 -40.1307
   -21.1661 -20.5824 -20.5739 -20.0215 -20.0195 -19.5102 -19.5013 -19.0197
   -18.6166 -18.6102 -18.3757 -18.3741 -18.1128 -18.0074 -18.0010 -17.7705
   -12.4052 -12.1253 -12.1245 -11.7431 -11.7396 -11.5802 -11.1148 -11.1092
   -10.3128 -10.2894 -10.0397 -10.0359  -9.5113  -9.5091  -8.7461  -8.7452
    -8.7289  -8.6904  -8.6822  -8.5187  -8.1197  -7.9360  -7.9282  -7.7505
    -7.7498  -7.3596  -7.3581  -7.1740  -7.1659  -7.1314  -7.1280  -6.8809
    -6.8802  -6.4570  -6.4536  -6.0761  -6.0748  -5.7731  -5.3403  -5.1858
    -5.1822  -5.1225  -4.8150  -4.8104  -4.4061  -4.2610  -4.2561  -3.8867
    -1.5674   0.3071   0.8865   0.9431   1.0596   1.2389   1.3139   1.3841
     1.4629   1.5091   1.5873   1.6089   1.6394   1.7129   1.8131   1.9526
     1.9955   2.0057   2.0545   2.0768   2.2240   2.2437

          k = 0.1667-0.4811 0.0000 ( 59291 PWs)   bands (ev):

   -68.7776 -68.7684 -40.4787 -40.3843 -40.1807 -40.1714 -40.1401 -40.1307
   -21.0343 -20.8345 -20.6421 -20.0802 -19.7249 -19.3868 -19.2378 -19.0944
   -18.9349 -18.6996 -18.5566 -18.4682 -18.0629 -18.0174 -17.8426 -17.6447
   -12.2689 -12.0338 -11.9659 -11.8294 -11.6026 -11.5792 -11.4750 -10.8635
   -10.8105 -10.5441 -10.4465  -9.7805  -9.6155  -9.2578  -9.0326  -8.5531
    -8.5442  -8.4743  -8.3119  -8.2764  -8.0835  -8.0199  -7.9856  -7.9722
    -7.6089  -7.5455  -7.4160  -7.3976  -7.2530  -7.0931  -6.9903  -6.7621
    -6.5431  -6.2910  -6.0803  -6.0792  -5.8747  -5.8505  -5.7055  -5.6482
    -5.3742  -5.3016  -5.0980  -4.9571  -4.3355  -4.2703  -3.9960  -3.6752
    -1.5593   0.2961   0.8756   0.9294   1.0923   1.1416   1.2472   1.2916
     1.3607   1.3858   1.5365   1.6974   1.7555   1.8411   1.9263   2.0175
     2.0483   2.0838   2.1226   2.2078   2.2258   2.2824

          k = 0.1667-0.0962 0.0000 ( 59226 PWs)   bands (ev):

   -68.7776 -68.7684 -40.4787 -40.3843 -40.1807 -40.1713 -40.1401 -40.1307
   -21.2328 -20.4532 -20.2668 -20.2606 -19.9062 -19.9011 -19.7283 -18.6474
   -18.6420 -18.2922 -18.2907 -18.2764 -18.1854 -18.1850 -17.9996 -17.9941
   -12.4262 -12.4257 -12.3293 -11.5025 -11.4987 -11.3448 -11.3446 -10.8476
   -10.8458  -9.8507  -9.8480  -9.5972  -9.2956  -9.2944  -9.1511  -9.1500
    -8.9638  -8.9630  -8.8183  -8.2447  -8.2426  -7.8225  -7.8219  -7.7714
    -7.7623  -7.6930  -7.5108  -7.4922  -7.0198  -6.9994  -6.8808  -6.8102
    -6.8086  -6.7631  -6.4534  -6.4506  -6.1799  -5.2413  -5.2232  -5.0653
    -4.9874  -4.7069  -4.7035  -4.6579  -4.5181  -4.5154  -4.2585  -4.2447
    -1.5753   0.3203   0.8860   0.9726   1.0149   1.2078   1.2544   1.3294
     1.5005   1.5563   1.6205   1.6827   1.7538   1.8074   1.8487   1.9095
     1.9820   1.9910   2.0455   2.0941   2.1877   2.2475

          k =-0.5000-0.8660 0.0000 ( 59292 PWs)   bands (ev):

   -68.7776 -68.7684 -40.4787 -40.3843 -40.1807 -40.1714 -40.1401 -40.1307
   -20.9720 -20.9628 -20.3905 -20.3847 -19.3417 -19.3396 -19.3340 -19.3329
   -18.9150 -18.9083 -18.2453 -18.2449 -18.2338 -18.2333 -17.7149 -17.7095
   -11.9909 -11.9901 -11.9821 -11.9813 -11.7995 -11.7955 -11.2531 -11.2474
   -10.1565 -10.1536 -10.0547 -10.0543 -10.0504 -10.0498  -8.4710  -8.4704
    -8.4645  -8.4634  -8.4623  -8.4562  -7.7854  -7.7850  -7.7816  -7.7809
    -7.7445  -7.7402  -7.6808  -7.6621  -7.4154  -7.4065  -6.5328  -6.5293
    -6.2368  -6.2287  -6.2126  -6.2074  -6.1143  -6.1079  -5.6106  -5.6092
    -5.4696  -5.4622  -4.6156  -4.6142  -4.6139  -4.6111  -3.7924  -3.7789
    -1.5368   0.0617   0.9032   0.9808   1.0710   1.1655   1.2593   1.4836
     1.5597   1.6197   1.6323   1.6964   1.7381   1.8275   1.8496   1.8717
     1.8832   1.9983   2.1325   2.1694   2.2241   2.2556

          k =-0.1667 0.2887 0.0000 ( 59267 PWs)   bands (ev):

   -68.7776 -68.7684 -40.4787 -40.3843 -40.1807 -40.1714 -40.1401 -40.1307
   -21.1661 -20.5824 -20.5739 -20.0215 -20.0195 -19.5103 -19.5013 -19.0197
   -18.6167 -18.6101 -18.3757 -18.3741 -18.1128 -18.0074 -18.0010 -17.7706
   -12.4052 -12.1253 -12.1245 -11.7431 -11.7396 -11.5802 -11.1148 -11.1091
   -10.3128 -10.2894 -10.0398 -10.0359  -9.5113  -9.5091  -8.7461  -8.7452
    -8.7289  -8.6904  -8.6822  -8.5186  -8.1198  -7.9359  -7.9282  -7.7505
    -7.7497  -7.3596  -7.3581  -7.1740  -7.1659  -7.1314  -7.1279  -6.8810
    -6.8802  -6.4570  -6.4536  -6.0761  -6.0748  -5.7731  -5.3404  -5.1858
    -5.1822  -5.1224  -4.8150  -4.8104  -4.4062  -4.2610  -4.2561  -3.8867
    -1.5674   0.3071   0.8865   0.9431   1.0596   1.2389   1.3139   1.3841
     1.4629   1.5091   1.5873   1.6089   1.6394   1.7128   1.8131   1.9526
     1.9955   2.0057   2.0545   2.0768   2.2240   2.2437

          k = 0.3333 0.0000 0.0000 ( 59267 PWs)   bands (ev):

   -68.7776 -68.7684 -40.4787 -40.3843 -40.1808 -40.1713 -40.1401 -40.1307
   -21.1660 -20.5951 -20.5612 -20.0269 -20.0134 -19.5230 -19.4894 -19.0205
   -18.6261 -18.5988 -18.3821 -18.3682 -18.1112 -18.0198 -17.9911 -17.7702
   -12.4048 -12.1296 -12.1204 -11.7479 -11.7357 -11.5795 -11.1238 -11.1001
   -10.3128 -10.2891 -10.0471 -10.0290  -9.5144  -9.5054  -8.7492  -8.7428
    -8.7269  -8.7015  -8.6717  -8.5190  -8.1205  -7.9693  -7.8948  -7.7514
    -7.7481  -7.3632  -7.3543  -7.1857  -7.1524  -7.1363  -7.1228  -6.8867
    -6.8751  -6.4908  -6.4221  -6.0777  -6.0729  -5.7752  -5.3403  -5.2016
    -5.1629  -5.1225  -4.8268  -4.7991  -4.4036  -4.2803  -4.2412  -3.8861
    -1.5528   0.1401   0.9229   0.9784   1.0481   1.1830   1.3367   1.4637
     1.5234   1.5769   1.6330   1.6982   1.7250   1.7901   1.8114   1.8559
     1.9551   1.9704   2.0521   2.1491   2.2244   2.2441

          k =-0.1667-0.4811 0.0000 ( 59291 PWs)   bands (ev):

   -68.7776 -68.7684 -40.4787 -40.3843 -40.1807 -40.1714 -40.1401 -40.1307
   -21.0343 -20.8345 -20.6421 -20.0802 -19.7249 -19.3868 -19.2378 -19.0944
   -18.9349 -18.6996 -18.5566 -18.4682 -18.0629 -18.0174 -17.8426 -17.6447
   -12.2689 -12.0338 -11.9659 -11.8293 -11.6026 -11.5792 -11.4751 -10.8635
   -10.8106 -10.5441 -10.4464  -9.7805  -9.6155  -9.2578  -9.0326  -8.5531
    -8.5442  -8.4743  -8.3118  -8.2764  -8.0835  -8.0199  -7.9857  -7.9723
    -7.6089  -7.5455  -7.4159  -7.3976  -7.2530  -7.0930  -6.9902  -6.7621
    -6.5432  -6.2911  -6.0803  -6.0792  -5.8747  -5.8504  -5.7055  -5.6482
    -5.3743  -5.3016  -5.0980  -4.9571  -4.3355  -4.2703  -3.9960  -3.6752
    -1.5593   0.2961   0.8756   0.9294   1.0923   1.1416   1.2471   1.2916
     1.3607   1.3858   1.5365   1.6974   1.7555   1.8411   1.9263   2.0174
     2.0483   2.0838   2.1224   2.2076   2.2258   2.2823

          k = 0.5000-0.0962 0.0000 ( 59291 PWs)   bands (ev):

   -68.7776 -68.7684 -40.4787 -40.3843 -40.1807 -40.1714 -40.1401 -40.1307
   -21.0333 -20.8373 -20.6404 -20.0796 -19.7247 -19.3877 -19.2398 -19.0925
   -18.9354 -18.7002 -18.5525 -18.4704 -18.0579 -18.0242 -17.8415 -17.6445
   -12.2682 -12.0340 -11.9652 -11.8310 -11.6083 -11.5728 -11.4758 -10.8638
   -10.8096 -10.5434 -10.4474  -9.7797  -9.6156  -9.2581  -9.0324  -8.5497
    -8.5442  -8.4735  -8.3136  -8.2867  -8.0828  -8.0134  -7.9920  -7.9663
    -7.6074  -7.5457  -7.4156  -7.3980  -7.2511  -7.0935  -6.9906  -6.7615
    -6.5434  -6.2940  -6.0849  -6.0799  -5.8692  -5.8504  -5.7052  -5.6496
    -5.3747  -5.3024  -5.0894  -4.9619  -4.3260  -4.2826  -3.9944  -3.6748
    -1.5368   0.0632   0.9013   0.9699   1.0776   1.1569   1.2526   1.3025
     1.4277   1.5593   1.6795   1.7886   1.8288   1.8674   1.9149   1.9283
     1.9710   2.0979   2.1391   2.2120   2.2523   2.2983

          k =-0.3333-0.3849 0.0000 ( 59291 PWs)   bands (ev):

   -68.7776 -68.7684 -40.4787 -40.3843 -40.1807 -40.1714 -40.1401 -40.1307
   -21.0336 -20.8363 -20.6411 -20.0794 -19.7256 -19.3869 -19.2379 -19.0939
   -18.9365 -18.6994 -18.5530 -18.4703 -18.0588 -18.0231 -17.8415 -17.6446
   -12.2687 -12.0330 -11.9662 -11.8303 -11.6031 -11.5785 -11.4755 -10.8637
   -10.8096 -10.5432 -10.4476  -9.7799  -9.6157  -9.2580  -9.0328  -8.5506
    -8.5439  -8.4742  -8.3124  -8.2830  -8.0833  -8.0160  -7.9856  -7.9733
    -7.6075  -7.5452  -7.4186  -7.3952  -7.2505  -7.0936  -6.9908  -6.7643
    -6.5426  -6.2915  -6.0814  -6.0788  -5.8735  -5.8499  -5.7053  -5.6524
    -5.3746  -5.3003  -5.0896  -4.9625  -4.3268  -4.2815  -3.9943  -3.6750
    -1.5445   0.1287   0.8918   0.9551   1.0800   1.1472   1.2885   1.3334
     1.3785   1.4653   1.7193   1.7334   1.7867   1.8320   1.9005   1.9840
     2.0466   2.0643   2.1181   2.1530   2.2386   2.2747

          k = 0.5000 0.0962 0.0000 ( 59291 PWs)   bands (ev):

   -68.7776 -68.7684 -40.4787 -40.3843 -40.1807 -40.1714 -40.1401 -40.1307
   -21.0333 -20.8373 -20.6404 -20.0796 -19.7247 -19.3877 -19.2398 -19.0925
   -18.9354 -18.7002 -18.5525 -18.4704 -18.0579 -18.0242 -17.8415 -17.6445
   -12.2682 -12.0341 -11.9652 -11.8310 -11.6083 -11.5728 -11.4758 -10.8638
   -10.8096 -10.5434 -10.4475  -9.7797  -9.6157  -9.2581  -9.0323  -8.5497
    -8.5442  -8.4736  -8.3136  -8.2868  -8.0828  -8.0134  -7.9920  -7.9663
    -7.6074  -7.5457  -7.4157  -7.3981  -7.2511  -7.0936  -6.9905  -6.7615
    -6.5433  -6.2940  -6.0849  -6.0798  -5.8692  -5.8503  -5.7053  -5.6496
    -5.3747  -5.3024  -5.0894  -4.9619  -4.3260  -4.2826  -3.9944  -3.6748
    -1.5368   0.0632   0.9013   0.9699   1.0777   1.1570   1.2526   1.3025
     1.4276   1.5593   1.6795   1.7886   1.8288   1.8674   1.9149   1.9283
     1.9710   2.0979   2.1391   2.2121   2.2523   2.2983

          k =-0.3333 0.3849 0.0000 ( 59291 PWs)   bands (ev):

   -68.7776 -68.7684 -40.4787 -40.3843 -40.1807 -40.1714 -40.1401 -40.1307
   -21.0336 -20.8363 -20.6411 -20.0794 -19.7256 -19.3869 -19.2379 -19.0939
   -18.9365 -18.6994 -18.5530 -18.4703 -18.0587 -18.0231 -17.8415 -17.6446
   -12.2687 -12.0330 -11.9662 -11.8303 -11.6031 -11.5785 -11.4755 -10.8637
   -10.8096 -10.5432 -10.4476  -9.7799  -9.6156  -9.2580  -9.0328  -8.5506
    -8.5439  -8.4742  -8.3125  -8.2830  -8.0834  -8.0160  -7.9856  -7.9733
    -7.6075  -7.5452  -7.4186  -7.3952  -7.2505  -7.0935  -6.9909  -6.7643
    -6.5426  -6.2915  -6.0815  -6.0788  -5.8735  -5.8500  -5.7052  -5.6524
    -5.3745  -5.3003  -5.0896  -4.9625  -4.3269  -4.2815  -3.9943  -3.6750
    -1.5445   0.1287   0.8918   0.9551   1.0799   1.1472   1.2885   1.3334
     1.3785   1.4653   1.7192   1.7334   1.7867   1.8320   1.9005   1.9840
     2.0467   2.0644   2.1181   2.1529   2.2385   2.2745

          k =-0.1667-0.0962 0.0000 ( 59226 PWs)   bands (ev):

   -68.7776 -68.7684 -40.4787 -40.3843 -40.1807 -40.1713 -40.1401 -40.1307
   -21.2328 -20.4532 -20.2668 -20.2606 -19.9062 -19.9011 -19.7283 -18.6474
   -18.6420 -18.2922 -18.2907 -18.2764 -18.1854 -18.1850 -17.9996 -17.9941
   -12.4262 -12.4257 -12.3293 -11.5025 -11.4987 -11.3448 -11.3446 -10.8476
   -10.8458  -9.8507  -9.8480  -9.5971  -9.2956  -9.2944  -9.1511  -9.1500
    -8.9638  -8.9630  -8.8183  -8.2447  -8.2427  -7.8225  -7.8218  -7.7714
    -7.7623  -7.6930  -7.5108  -7.4922  -7.0198  -6.9994  -6.8809  -6.8102
    -6.8086  -6.7631  -6.4533  -6.4506  -6.1800  -5.2413  -5.2232  -5.0652
    -4.9875  -4.7069  -4.7035  -4.6580  -4.5180  -4.5153  -4.2585  -4.2447
    -1.5753   0.3203   0.8860   0.9726   1.0149   1.2078   1.2544   1.3294
     1.5006   1.5563   1.6206   1.6827   1.7538   1.8075   1.8487   1.9096
     1.9820   1.9909   2.0455   2.0942   2.1875   2.2477

          k =-0.0000-0.1925 0.0000 ( 59226 PWs)   bands (ev):

   -68.7776 -68.7684 -40.4787 -40.3843 -40.1807 -40.1714 -40.1401 -40.1307
   -21.2328 -20.4515 -20.2691 -20.2613 -19.9058 -19.8989 -19.7296 -18.6473
   -18.6407 -18.3059 -18.2856 -18.2750 -18.1839 -18.1788 -18.0013 -17.9943
   -12.4306 -12.4214 -12.3292 -11.5034 -11.4981 -11.3497 -11.3388 -10.8482
   -10.8458  -9.8500  -9.8488  -9.5971  -9.2983  -9.2911  -9.1512  -9.1505
    -8.9639  -8.9627  -8.8185  -8.2445  -8.2427  -7.8236  -7.8203  -7.7699
    -7.7576  -7.6937  -7.5156  -7.4984  -7.0126  -6.9977  -6.8804  -6.8111
    -6.8082  -6.7672  -6.4535  -6.4502  -6.1802  -5.2375  -5.2241  -5.0654
    -4.9873  -4.7285  -4.6936  -4.6583  -4.5174  -4.5035  -4.2590  -4.2474
    -1.5822   0.4478   0.8431   0.9412   1.0304   1.1951   1.2524   1.3218
     1.4130   1.5029   1.5919   1.6526   1.6814   1.7685   1.9334   1.9474
     1.9801   2.0164   2.0964   2.1288   2.1370   2.2311

          k = 0.5000-0.8660 0.0000 ( 59292 PWs)   bands (ev):

   -68.7776 -68.7684 -40.4787 -40.3843 -40.1807 -40.1714 -40.1401 -40.1307
   -20.9720 -20.9628 -20.3905 -20.3847 -19.3417 -19.3396 -19.3340 -19.3329
   -18.9150 -18.9082 -18.2453 -18.2450 -18.2338 -18.2333 -17.7149 -17.7095
   -11.9909 -11.9901 -11.9821 -11.9813 -11.7995 -11.7955 -11.2531 -11.2473
   -10.1566 -10.1536 -10.0547 -10.0543 -10.0504 -10.0498  -8.4710  -8.4703
    -8.4645  -8.4634  -8.4623  -8.4562  -7.7854  -7.7851  -7.7816  -7.7809
    -7.7445  -7.7403  -7.6808  -7.6621  -7.4154  -7.4066  -6.5328  -6.5293
    -6.2368  -6.2287  -6.2126  -6.2075  -6.1142  -6.1078  -5.6106  -5.6092
    -5.4697  -5.4623  -4.6156  -4.6142  -4.6140  -4.6111  -3.7924  -3.7789
    -1.5368   0.0617   0.9032   0.9808   1.0710   1.1655   1.2593   1.4836
     1.5597   1.6197   1.6322   1.6963   1.7382   1.8275   1.8496   1.8717
     1.8831   1.9982   2.1324   2.1693   2.2241   2.2557

          k =-1.0000 0.0000 0.0000 ( 59292 PWs)   bands (ev):

   -68.7776 -68.7684 -40.4787 -40.3843 -40.1807 -40.1714 -40.1401 -40.1307
   -20.9840 -20.9498 -20.3922 -20.3846 -19.3447 -19.3417 -19.3353 -19.3244
   -18.9255 -18.8981 -18.2774 -18.2336 -18.2319 -18.2149 -17.7158 -17.7093
   -12.0152 -11.9876 -11.9749 -11.9655 -11.8008 -11.7941 -11.2633 -11.2376
   -10.1587 -10.1570 -10.0544 -10.0528 -10.0495 -10.0478  -8.4968  -8.4885
    -8.4696  -8.4585  -8.4483  -8.4208  -7.7912  -7.7848  -7.7829  -7.7818
    -7.7400  -7.7378  -7.6824  -7.6660  -7.4269  -7.3959  -6.5325  -6.5285
    -6.2416  -6.2300  -6.2126  -6.1952  -6.1233  -6.0998  -5.6305  -5.5913
    -5.4802  -5.4518  -4.6762  -4.6096  -4.5938  -4.5761  -3.7913  -3.7812
    -1.5664   0.4140   0.8654   0.9364   1.1014   1.1443   1.1974   1.2196
     1.3119   1.6041   1.6206   1.6676   1.7000   1.7360   1.8217   1.8482
     2.0225   2.0863   2.0926   2.1070   2.2265   2.2589

     the Fermi energy is    -1.2303 ev

!    total energy              =   -1133.82699893 Ry

     total all-electron energy =     -6753.502702 Ry
     estimated scf accuracy    <       0.00000004 Ry
     smearing contrib. (-TS)   =      -0.00000000 Ry
     internal energy E=F+TS    =   -1133.82699893 Ry

     The total energy is F=E-TS. E is the sum of the following terms:
     one-electron contribution =   -3857.89773120 Ry
     hartree contribution      =    1957.39522497 Ry
     xc contribution           =    -185.99317089 Ry
     ewald contribution        =    1312.04090785 Ry
     DFT-D3 Dispersion         =      -0.12961622 Ry
     one-center paw contrib.   =    -359.24261343 Ry

     total magnetization       =    10.00 Bohr mag/cell
     absolute magnetization    =    10.01 Bohr mag/cell

     convergence has been achieved in  15 iterations

     Writing output data file ./mytmp/Crdimer0.685.save/
 
     init_run     :     89.53s CPU    102.05s WALL (       1 calls)
     electrons    :   2646.85s CPU   2708.58s WALL (       1 calls)

     Called by init_run:
     wfcinit      :     73.96s CPU     84.77s WALL (       1 calls)
     potinit      :      4.19s CPU      4.50s WALL (       1 calls)
     hinit0       :      3.09s CPU      3.40s WALL (       1 calls)

     Called by electrons:
     c_bands      :   1948.75s CPU   1975.60s WALL (      15 calls)
     sum_band     :    572.55s CPU    593.02s WALL (      15 calls)
     v_of_rho     :     27.68s CPU     28.69s WALL (      16 calls)
     newd         :     83.63s CPU     97.86s WALL (      16 calls)
     PAW_pot      :     10.19s CPU     10.39s WALL (      16 calls)
     mix_rho      :      7.62s CPU      7.63s WALL (      15 calls)

     Called by c_bands:
     init_us_2    :     26.86s CPU     27.02s WALL (     930 calls)
     cegterg      :   1897.06s CPU   1923.58s WALL (     450 calls)

     Called by *egterg:
     cdiaghg      :     16.93s CPU     25.22s WALL (    2863 calls)
     h_psi        :   1350.69s CPU   1374.99s WALL (    2893 calls)
     s_psi        :     82.55s CPU     82.85s WALL (    2893 calls)
     g_psi        :      6.18s CPU      6.21s WALL (    2413 calls)

     Called by h_psi:
     h_psi:calbec :     76.13s CPU     76.60s WALL (    2893 calls)
     vloc_psi     :   1167.11s CPU   1189.93s WALL (    2893 calls)
     add_vuspsi   :     90.58s CPU     91.08s WALL (    2893 calls)

     General routines
     calbec       :     94.13s CPU     94.68s WALL (    3343 calls)
     fft          :     24.73s CPU     26.86s WALL (     394 calls)
     ffts         :      0.71s CPU      0.75s WALL (      62 calls)
     fftw         :    953.72s CPU    977.29s WALL (  264378 calls)
     interpolate  :      2.57s CPU      2.64s WALL (      32 calls)
 
     Parallel routines
 
     PWSCF        :  45m38.10s CPU  46m54.01s WALL

 
   This run was terminated on:  23:24:47  27Mar2021            

=------------------------------------------------------------------------------=
   JOB DONE.
=------------------------------------------------------------------------------=
