
     Program PWSCF v.6.7MaX starts on  2Apr2021 at 11:14:57 

     This program is part of the open-source Quantum ESPRESSO suite
     for quantum simulation of materials; please cite
         "P. Giannozzi et al., J. Phys.:Condens. Matter 21 395502 (2009);
         "P. Giannozzi et al., J. Phys.:Condens. Matter 29 465901 (2017);
          URL http://www.quantum-espresso.org", 
     in publications or presentations arising from this work. More details at
     http://www.quantum-espresso.org/quote

     Parallel version (MPI), running on    48 processors

     MPI processes distributed on     1 nodes
     R & G space division:  proc/nbgrp/npool/nimage =      48
     Reading input from Crdimer0.1405-0.2.scf.in

     Current dimensions of program PWSCF are:
     Max number of different atomic species (ntypx) = 10
     Max number of k-points (npk) =  40000
     Max angular momentum in pseudopotentials (lmaxx) =  3
     file N.pbe-n-kjpaw_psl.1.0.0.UPF: wavefunction(s)  2S renormalized
     file Cr.pbe-spn-kjpaw_psl.1.0.0.UPF: wavefunction(s)  3S 3P 3D renormalized
     file Cr.pbe-spn-kjpaw_psl.1.0.0.UPF: wavefunction(s)  3S 3P 3D renormalized

     --------------------------------------------
     Parameters for DFT-D3 Dispersion Correction:
     --------------------------------------------
       Reference C6 values for interpolation: 

         atom   Coordination number   C6
         B          0.000           214.36
         B          0.971           150.74
         B          1.944           106.23
         B          2.913            62.89
         B          4.586            56.06
         N          0.000            50.54
         N          0.994            44.25
         N          2.014            39.35
         N          2.990            31.16
         Cr1        0.000          1381.48
         Cr1        1.827           571.38
         Cr1       10.619           306.69
         Cr2        0.000          1381.48
         Cr2        1.827           571.38
         Cr2       10.619           306.69

       Values used:

         atom   Coordination number  R0_AB[au]  C6      C8
         B          3.338            3.039     62.89   2505.93
         B          3.335            3.039     62.89   2506.01
         B          3.343            3.039     62.89   2505.81
         B          3.336            3.039     62.89   2506.00
         B          3.380            3.039     62.86   2504.75
         B          3.335            3.039     62.89   2506.00
         N          3.134            2.478     31.22    688.69
         N          3.135            2.478     31.22    688.69
         N          3.152            2.478     31.21    688.54
         N          3.136            2.478     31.22    688.68
         N          3.145            2.478     31.21    688.60
         N          3.134            2.478     31.22    688.70
         N          3.142            2.478     31.21    688.62
         N          3.134            2.478     31.22    688.70
         N          3.135            2.478     31.22    688.69
         B          3.337            3.039     62.89   2505.97
         B          3.335            3.039     62.89   2506.01
         B          3.335            3.039     62.89   2506.00
         B          3.380            3.039     62.86   2504.75
         B          3.338            3.039     62.89   2505.93
         B          3.337            3.039     62.89   2505.97
         N          3.142            2.478     31.21    688.62
         B          3.335            3.039     62.89   2506.01
         B          3.338            3.039     62.89   2505.95
         B          3.341            3.039     62.89   2505.87
         N          3.134            2.478     31.22    688.70
         N          3.135            2.478     31.22    688.69
         N          3.134            2.478     31.22    688.69
         N          3.134            2.478     31.22    688.69
         N          3.152            2.478     31.21    688.54
         N          3.136            2.478     31.22    688.68
         B          3.341            3.039     62.89   2505.87
         Cr1        0.765            3.252   1277.16 117867.87
         Cr2        0.765            3.252   1277.16 117867.87

         Molecular C6 ( Ry / a.u.^6 ) =     77957.12


     Subspace diagonalization in iterative solution of the eigenvalue problem:
     one sub-group per band group will be used
     scalapack distributed-memory algorithm (size of sub-group:  6*  6 procs)

 
     Parallelization info
     --------------------
     sticks:   dense  smooth     PW     G-vecs:    dense   smooth      PW
     Min         235      98     26                36277     9874    1408
     Max         236      99     27                36282     9883    1425
     Sum       11311    4741   1285              1741401   474235   68095
 


     bravais-lattice index     =            4
     lattice parameter (alat)  =      18.9275  a.u.
     unit-cell volume          =   10553.3021 (a.u.)^3
     number of atoms/cell      =           34
     number of atomic types    =            4
     number of electrons       =       156.00
     number of Kohn-Sham states=           94
     kinetic-energy cutoff     =      48.0000  Ry
     charge density cutoff     =     457.0000  Ry
     scf convergence threshold =      1.0E-07
     mixing beta               =       0.5000
     number of iterations used =            8  plain     mixing
     Exchange-correlation= SLA  PW   PBX  PBC
                           (   1   4   3   4   0   0   0)

     celldm(1)=  18.927497  celldm(2)=   0.000000  celldm(3)=   1.797125
     celldm(4)=   0.000000  celldm(5)=   0.000000  celldm(6)=   0.000000

     crystal axes: (cart. coord. in units of alat)
               a(1) = (   1.000000   0.000000   0.000000 )  
               a(2) = (  -0.500000   0.866025   0.000000 )  
               a(3) = (   0.000000   0.000000   1.797125 )  

     reciprocal axes: (cart. coord. in units 2 pi/alat)
               b(1) = (  1.000000  0.577350  0.000000 )  
               b(2) = (  0.000000  1.154701  0.000000 )  
               b(3) = (  0.000000  0.000000  0.556444 )  


     PseudoPot. # 1 for B  read from file:
     /home/sf05/q-e-qe-6.7MaX-Release/pseudo/B.pbe-n-kjpaw_psl.1.0.0.UPF
     MD5 check sum: d9c678ba5d3b2fd7b74e61139c9288d8
     Pseudo is Projector augmented-wave + core cor, Zval =  3.0
     Generated using "atomic" code by A. Dal Corso  v.5.1.2
     Shape of augmentation charge: PSQ
     Using radial grid of 1059 points,  4 beta functions with: 
                l(1) =   0
                l(2) =   0
                l(3) =   1
                l(4) =   1
     Q(r) pseudized with 0 coefficients 


     PseudoPot. # 2 for N  read from file:
     /home/sf05/q-e-qe-6.7MaX-Release/pseudo/N.pbe-n-kjpaw_psl.1.0.0.UPF
     MD5 check sum: e0e4e94a9c4025c5b51bd7d8793849bd
     Pseudo is Projector augmented-wave + core cor, Zval =  5.0
     Generated using "atomic" code by A. Dal Corso  v.5.1.2
     Shape of augmentation charge: PSQ
     Using radial grid of 1085 points,  4 beta functions with: 
                l(1) =   0
                l(2) =   0
                l(3) =   1
                l(4) =   1
     Q(r) pseudized with 0 coefficients 


     PseudoPot. # 3 for Cr read from file:
     /home/sf05/q-e-qe-6.7MaX-Release/pseudo/Cr.pbe-spn-kjpaw_psl.1.0.0.UPF
     MD5 check sum: 198f1a2427a48552563eee314eba32ba
     Pseudo is Projector augmented-wave + core cor, Zval = 14.0
     Generated using &quot;atomic&quot; code by A. Dal Corso  v.6.3
     Shape of augmentation charge: PSQ
     Using radial grid of 1183 points,  6 beta functions with: 
                l(1) =   0
                l(2) =   0
                l(3) =   1
                l(4) =   1
                l(5) =   2
                l(6) =   2
     Q(r) pseudized with 0 coefficients 


     PseudoPot. # 4 for Cr read from file:
     /home/sf05/q-e-qe-6.7MaX-Release/pseudo/Cr.pbe-spn-kjpaw_psl.1.0.0.UPF
     MD5 check sum: 198f1a2427a48552563eee314eba32ba
     Pseudo is Projector augmented-wave + core cor, Zval = 14.0
     Generated using &quot;atomic&quot; code by A. Dal Corso  v.6.3
     Shape of augmentation charge: PSQ
     Using radial grid of 1183 points,  6 beta functions with: 
                l(1) =   0
                l(2) =   0
                l(3) =   1
                l(4) =   1
                l(5) =   2
                l(6) =   2
     Q(r) pseudized with 0 coefficients 


     atomic species   valence    mass     pseudopotential
        B              3.00    10.81100     B ( 1.00)
        N              5.00    14.00674     N ( 1.00)
        Cr1           14.00    51.99610     Cr( 1.00)
        Cr2           14.00    51.99610     Cr( 1.00)

     Starting magnetic structure 
     atomic species   magnetization
        B            0.000
        N            0.000
        Cr1          1.000
        Cr2          1.000

     No symmetry found



   Cartesian axes

     site n.     atom                  positions (alat units)
         1           B   tau(   1) = (  -0.1250000   0.2165064   0.8985623  )
         2           B   tau(   2) = (   0.3750000   0.6495191   0.8985623  )
         3           B   tau(   3) = (   0.2500000   0.0000000   0.8985623  )
         4           B   tau(   4) = (   0.7500000   0.0000000   0.8985623  )
         5           B   tau(   5) = (   0.1250000   0.2165064   0.8985623  )
         6           B   tau(   6) = (  -0.3750000   0.6495191   0.8985623  )
         7           N   tau(   7) = (   0.7500005   0.2886748   0.8985623  )
         8           N   tau(   8) = (   0.3750005   0.5051812   0.8985623  )
         9           N   tau(   9) = (   0.3750005   0.0721685   0.8985623  )
        10           N   tau(  10) = (   0.6250005   0.0721685   0.8985623  )
        11           N   tau(  11) = (   0.2500005   0.2886748   0.8985623  )
        12           N   tau(  12) = (   0.6250005   0.5051812   0.8985623  )
        13           N   tau(  13) = (   0.0000005   0.2886748   0.8985623  )
        14           N   tau(  14) = (   0.2500005   0.7216875   0.8985623  )
        15           N   tau(  15) = (  -0.2499995   0.7216875   0.8985623  )
        16           B   tau(  16) = (   0.0000000   0.4330127   0.8985623  )
        17           B   tau(  17) = (   0.1250000   0.6495191   0.8985623  )
        18           B   tau(  18) = (  -0.1250000   0.6495191   0.8985623  )
        19           B   tau(  19) = (   0.3750000   0.2165064   0.8985623  )
        20           B   tau(  20) = (   0.6250000   0.2165064   0.8985623  )
        21           B   tau(  21) = (   0.5000000   0.4330127   0.8985623  )
        22           N   tau(  22) = (   0.5000005   0.2886748   0.8985623  )
        23           B   tau(  23) = (  -0.2500000   0.4330127   0.8985623  )
        24           B   tau(  24) = (   0.2500000   0.4330127   0.8985623  )
        25           B   tau(  25) = (   0.5000000   0.0000000   0.8985623  )
        26           N   tau(  26) = (  -0.1249995   0.5051812   0.8985623  )
        27           N   tau(  27) = (   0.1250005   0.5051812   0.8985623  )
        28           N   tau(  28) = (   0.0000005   0.7216875   0.8985623  )
        29           N   tau(  29) = (   0.5000005   0.7216875   0.8985623  )
        30           N   tau(  30) = (   0.1250005   0.0721685   0.8985623  )
        31           N   tau(  31) = (   0.8750005   0.0721685   0.8985623  )
        32           B   tau(  32) = (   0.0000000   0.0000000   0.8985623  )
        33           Cr1 tau(  33) = (   0.3905000   0.1732051   1.2040735  )
        34           Cr2 tau(  34) = (   0.1095000   0.1732051   1.2040735  )

     number of k points=    15  Gaussian smearing, width (Ry)=  0.0000
                       cart. coord. in units 2pi/alat
        k(    1) = (   0.1666667   0.2886751   0.0000000), wk =   0.0740741
        k(    2) = (   0.1666667  -0.4811252   0.0000000), wk =   0.0740741
        k(    3) = (   0.1666667  -0.0962250   0.0000000), wk =   0.0740741
        k(    4) = (  -0.5000000  -0.8660254   0.0000000), wk =   0.0370370
        k(    5) = (  -0.1666667   0.2886751   0.0000000), wk =   0.0740741
        k(    6) = (   0.3333333   0.0000000   0.0000000), wk =   0.0740741
        k(    7) = (  -0.1666667  -0.4811252   0.0000000), wk =   0.0740741
        k(    8) = (   0.5000000  -0.0962250   0.0000000), wk =   0.0740741
        k(    9) = (  -0.3333333  -0.3849002   0.0000000), wk =   0.0740741
        k(   10) = (   0.5000000   0.0962250   0.0000000), wk =   0.0740741
        k(   11) = (  -0.3333333   0.3849002   0.0000000), wk =   0.0740741
        k(   12) = (  -0.1666667  -0.0962250   0.0000000), wk =   0.0740741
        k(   13) = (  -0.0000000  -0.1924501   0.0000000), wk =   0.0740741
        k(   14) = (   0.5000000  -0.8660254   0.0000000), wk =   0.0370370
        k(   15) = (  -1.0000000   0.0000000   0.0000000), wk =   0.0370370

     Dense  grid:  1741401 G-vectors     FFT dimensions: ( 135, 135, 240)

     Smooth grid:   474235 G-vectors     FFT dimensions: (  90,  90, 160)

     Estimated max dynamical RAM per process >     218.62 MB

     Estimated total dynamical RAM >      10.25 GB
     Generating pointlists ...
     new r_m :   0.0595 (alat units)  1.1269 (a.u.) for type    1
     new r_m :   0.0595 (alat units)  1.1269 (a.u.) for type    2
     new r_m :   0.1159 (alat units)  2.1939 (a.u.) for type    3
     new r_m :   0.1159 (alat units)  2.1939 (a.u.) for type    4

     Initial potential from superposition of free atoms

     starting charge  155.99382, renormalised to  156.00000

     negative rho (up, down):  6.707E-03 4.655E-04
     Starting wfcs are  148 randomized atomic wfcs
     Checking if some PAW data can be deallocated... 

     total cpu time spent up to now is       20.4 secs

     Self-consistent Calculation

     iteration #  1     ecut=    48.00 Ry     beta= 0.50
     Davidson diagonalization with overlap
     ethr =  1.00E-02,  avg # of iterations =  2.8

     negative rho (up, down):  4.893E-03 2.902E-03

     total cpu time spent up to now is       60.4 secs

     total energy              =   -1130.72994789 Ry
     estimated scf accuracy    <      11.37831879 Ry

     total magnetization       =    12.00 Bohr mag/cell
     absolute magnetization    =    12.12 Bohr mag/cell

     iteration #  2     ecut=    48.00 Ry     beta= 0.50
     Davidson diagonalization with overlap
     ethr =  7.29E-03,  avg # of iterations =  2.8

     negative rho (up, down):  8.419E-03 7.566E-03

     total cpu time spent up to now is       97.7 secs

     total energy              =   -1132.99263174 Ry
     estimated scf accuracy    <       3.60415280 Ry

     total magnetization       =    10.00 Bohr mag/cell
     absolute magnetization    =    10.11 Bohr mag/cell

     iteration #  3     ecut=    48.00 Ry     beta= 0.50
     Davidson diagonalization with overlap
     ethr =  2.31E-03,  avg # of iterations =  6.9

     negative rho (up, down):  3.729E-03 3.605E-03

     total cpu time spent up to now is      134.9 secs

     total energy              =   -1133.57556237 Ry
     estimated scf accuracy    <       0.77688408 Ry

     total magnetization       =    11.70 Bohr mag/cell
     absolute magnetization    =    11.76 Bohr mag/cell

     iteration #  4     ecut=    48.00 Ry     beta= 0.50
     Davidson diagonalization with overlap
     ethr =  4.98E-04,  avg # of iterations =  6.3

     negative rho (up, down):  7.121E-03 7.858E-03

     total cpu time spent up to now is      170.9 secs

     total energy              =   -1133.77241131 Ry
     estimated scf accuracy    <       0.51022146 Ry

     total magnetization       =    10.00 Bohr mag/cell
     absolute magnetization    =    10.01 Bohr mag/cell

     iteration #  5     ecut=    48.00 Ry     beta= 0.50
     Davidson diagonalization with overlap
     ethr =  3.27E-04,  avg # of iterations =  6.2

     negative rho (up, down):  4.660E-03 4.577E-03

     total cpu time spent up to now is      208.7 secs

     total energy              =   -1133.81286044 Ry
     estimated scf accuracy    <       0.04913110 Ry

     total magnetization       =    10.00 Bohr mag/cell
     absolute magnetization    =    10.02 Bohr mag/cell

     iteration #  6     ecut=    48.00 Ry     beta= 0.50
     Davidson diagonalization with overlap
     ethr =  3.15E-05,  avg # of iterations =  9.3

     negative rho (up, down):  3.725E-03 3.987E-03

     total cpu time spent up to now is      252.5 secs

     total energy              =   -1133.82183566 Ry
     estimated scf accuracy    <       0.02751995 Ry

     total magnetization       =    10.00 Bohr mag/cell
     absolute magnetization    =    10.02 Bohr mag/cell

     iteration #  7     ecut=    48.00 Ry     beta= 0.50
     Davidson diagonalization with overlap
     ethr =  1.76E-05,  avg # of iterations =  6.3

     negative rho (up, down):  3.316E-03 3.783E-03

     total cpu time spent up to now is      288.1 secs

     total energy              =   -1133.82649092 Ry
     estimated scf accuracy    <       0.00305666 Ry

     total magnetization       =    10.00 Bohr mag/cell
     absolute magnetization    =    10.01 Bohr mag/cell

     iteration #  8     ecut=    48.00 Ry     beta= 0.50
     Davidson diagonalization with overlap
     ethr =  1.96E-06,  avg # of iterations =  8.4

     negative rho (up, down):  3.219E-03 3.757E-03

     total cpu time spent up to now is      329.0 secs

     total energy              =   -1133.82746974 Ry
     estimated scf accuracy    <       0.00043981 Ry

     total magnetization       =    10.00 Bohr mag/cell
     absolute magnetization    =    10.01 Bohr mag/cell

     iteration #  9     ecut=    48.00 Ry     beta= 0.50
     Davidson diagonalization with overlap
     ethr =  2.82E-07,  avg # of iterations =  3.8

     negative rho (up, down):  3.149E-03 3.747E-03

     total cpu time spent up to now is      361.5 secs

     total energy              =   -1133.82765202 Ry
     estimated scf accuracy    <       0.00008682 Ry

     total magnetization       =    10.00 Bohr mag/cell
     absolute magnetization    =    10.01 Bohr mag/cell

     iteration # 10     ecut=    48.00 Ry     beta= 0.50
     Davidson diagonalization with overlap
     ethr =  5.57E-08,  avg # of iterations =  3.8

     negative rho (up, down):  3.143E-03 3.769E-03

     total cpu time spent up to now is      399.2 secs

     total energy              =   -1133.82772444 Ry
     estimated scf accuracy    <       0.00001802 Ry

     total magnetization       =    10.00 Bohr mag/cell
     absolute magnetization    =    10.01 Bohr mag/cell

     iteration # 11     ecut=    48.00 Ry     beta= 0.50
     Davidson diagonalization with overlap
     ethr =  1.16E-08,  avg # of iterations =  4.6

     negative rho (up, down):  3.131E-03 3.781E-03

     total cpu time spent up to now is      432.8 secs

     total energy              =   -1133.82774690 Ry
     estimated scf accuracy    <       0.00000619 Ry

     total magnetization       =    10.00 Bohr mag/cell
     absolute magnetization    =    10.01 Bohr mag/cell

     iteration # 12     ecut=    48.00 Ry     beta= 0.50
     Davidson diagonalization with overlap
     ethr =  3.97E-09,  avg # of iterations =  4.5

     negative rho (up, down):  3.125E-03 3.790E-03

     total cpu time spent up to now is      465.5 secs

     total energy              =   -1133.82775323 Ry
     estimated scf accuracy    <       0.00000091 Ry

     total magnetization       =    10.00 Bohr mag/cell
     absolute magnetization    =    10.01 Bohr mag/cell

     iteration # 13     ecut=    48.00 Ry     beta= 0.50
     Davidson diagonalization with overlap
     ethr =  5.82E-10,  avg # of iterations =  4.9

     negative rho (up, down):  3.121E-03 3.794E-03

     total cpu time spent up to now is      500.4 secs

     total energy              =   -1133.82775553 Ry
     estimated scf accuracy    <       0.00000025 Ry

     total magnetization       =    10.00 Bohr mag/cell
     absolute magnetization    =    10.01 Bohr mag/cell

     iteration # 14     ecut=    48.00 Ry     beta= 0.50
     Davidson diagonalization with overlap
     ethr =  1.62E-10,  avg # of iterations =  4.9

     negative rho (up, down):  3.120E-03 3.795E-03
 
     Magnetic moment per site:
     atom:    1    charge:    0.8809    magn:    0.0003    constr:    0.0000
     atom:    2    charge:    0.8803    magn:    0.0001    constr:    0.0000
     atom:    3    charge:    0.8795    magn:    0.0008    constr:    0.0000
     atom:    4    charge:    0.8806    magn:    0.0002    constr:    0.0000
     atom:    5    charge:    0.8806    magn:    0.0002    constr:    0.0000
     atom:    6    charge:    0.8802    magn:    0.0001    constr:    0.0000
     atom:    7    charge:    2.8611    magn:    0.0001    constr:    0.0000
     atom:    8    charge:    2.8608    magn:    0.0005    constr:    0.0000
     atom:    9    charge:    2.8607    magn:    0.0073    constr:    0.0000
     atom:   10    charge:    2.8609    magn:    0.0011    constr:    0.0000
     atom:   11    charge:    2.8603    magn:    0.0063    constr:    0.0000
     atom:   12    charge:    2.8610    magn:    0.0001    constr:    0.0000
     atom:   13    charge:    2.8597    magn:    0.0043    constr:    0.0000
     atom:   14    charge:    2.8599    magn:    0.0003    constr:    0.0000
     atom:   15    charge:    2.8598    magn:    0.0004    constr:    0.0000
     atom:   16    charge:    0.8800    magn:    0.0005    constr:    0.0000
     atom:   17    charge:    0.8800    magn:    0.0001    constr:    0.0000
     atom:   18    charge:    0.8799    magn:    0.0001    constr:    0.0000
     atom:   19    charge:    0.8800    magn:    0.0002    constr:    0.0000
     atom:   20    charge:    0.8803    magn:    0.0003    constr:    0.0000
     atom:   21    charge:    0.8798    magn:    0.0005    constr:    0.0000
     atom:   22    charge:    2.8610    magn:    0.0043    constr:    0.0000
     atom:   23    charge:    0.8801    magn:    0.0002    constr:    0.0000
     atom:   24    charge:    0.8796    magn:    0.0004    constr:    0.0000
     atom:   25    charge:    0.8802    magn:    0.0003    constr:    0.0000
     atom:   26    charge:    2.8598    magn:    0.0001    constr:    0.0000
     atom:   27    charge:    2.8597    magn:    0.0005    constr:    0.0000
     atom:   28    charge:    2.8597    magn:    0.0005    constr:    0.0000
     atom:   29    charge:    2.8596    magn:    0.0005    constr:    0.0000
     atom:   30    charge:    2.8594    magn:    0.0073    constr:    0.0000
     atom:   31    charge:    2.8596    magn:    0.0011    constr:    0.0000
     atom:   32    charge:    0.8804    magn:    0.0003    constr:    0.0000
     atom:   33    charge:   12.4975    magn:    4.2218    constr:    0.0000
     atom:   34    charge:   12.4975    magn:    4.2218    constr:    0.0000

     total cpu time spent up to now is      534.4 secs

     End of self-consistent calculation

 ------ SPIN UP ------------


          k = 0.1667 0.2887 0.0000 ( 59267 PWs)   bands (ev):

   -72.8932 -72.8842 -44.4460 -44.3592 -44.2918 -44.2832 -44.2702 -44.2616
   -21.2412 -20.6556 -20.6497 -20.1009 -20.0890 -19.5826 -19.5769 -19.0940
   -18.6917 -18.6856 -18.4540 -18.4433 -18.1892 -18.0803 -18.0730 -17.8442
   -12.4785 -12.2023 -12.1951 -11.8162 -11.8119 -11.6530 -11.1867 -11.1833
   -10.3865 -10.3625 -10.1127 -10.1095  -9.5837  -9.5826  -8.8344  -8.8192
    -8.8159  -8.7618  -8.7557  -8.5910  -8.1917  -8.0475  -8.0106  -7.8241
    -7.8209  -7.4329  -7.4318  -7.2780  -7.2537  -7.2031  -7.2003  -6.9572
    -6.9479  -6.5617  -6.5333  -6.1485  -6.1471  -5.8671  -5.4132  -5.2918
    -5.2690  -5.1947  -4.9108  -4.8923  -4.5018  -4.3518  -4.3360  -3.9748
    -2.9006  -2.0579  -2.0334  -1.8516  -1.6460  -1.6208  -1.4991  -1.4795
    -1.3802  -1.3622  -1.3229  -0.7184   0.6875   0.9220   1.0097   1.1806
     1.2902   1.4711   1.5221   1.5759   1.6091   1.7998

          k = 0.1667-0.4811 0.0000 ( 59291 PWs)   bands (ev):

   -72.8932 -72.8842 -44.4460 -44.3592 -44.2918 -44.2833 -44.2702 -44.2615
   -21.1106 -20.9070 -20.7173 -20.1552 -19.7988 -19.4612 -19.3114 -19.1692
   -19.0090 -18.7736 -18.6347 -18.5394 -18.1427 -18.0850 -17.9167 -17.7185
   -12.3425 -12.1077 -12.0393 -11.9013 -11.6750 -11.6534 -11.5474 -10.9369
   -10.8846 -10.6183 -10.5181  -9.8548  -9.6879  -9.3309  -9.1055  -8.6627
    -8.6174  -8.5474  -8.3839  -8.3632  -8.1560  -8.1184  -8.0577  -8.0444
    -7.6824  -7.6178  -7.4885  -7.4687  -7.3518  -7.1656  -7.0625  -6.8557
    -6.6167  -6.3849  -6.1728  -6.1525  -5.9670  -5.9239  -5.7780  -5.7414
    -5.4460  -5.3934  -5.2046  -5.0372  -4.4393  -4.3434  -4.0841  -3.7621
    -2.8977  -2.0576  -2.0332  -1.8483  -1.6451  -1.6206  -1.5010  -1.4807
    -1.3811  -1.3617  -1.3239  -0.7222   0.5945   0.9204   1.0081   1.1089
     1.2339   1.2829   1.3863   1.8434   1.9186   2.1254

          k = 0.1667-0.0962 0.0000 ( 59226 PWs)   bands (ev):

   -72.8932 -72.8842 -44.4460 -44.3592 -44.2918 -44.2832 -44.2702 -44.2615
   -21.3077 -20.5297 -20.3408 -20.3330 -19.9830 -19.9748 -19.8007 -18.7239
   -18.7162 -18.3709 -18.3607 -18.3501 -18.2659 -18.2541 -18.0729 -18.0657
   -12.5030 -12.4958 -12.4029 -11.5760 -11.5705 -11.4231 -11.4131 -10.9209
   -10.9182  -9.9245  -9.9205  -9.6704  -9.3715  -9.3648  -9.2256  -9.2224
    -9.0371  -9.0347  -8.9187  -8.3190  -8.3156  -7.8963  -7.8934  -7.8758
    -7.8394  -7.7649  -7.6057  -7.5765  -7.1319  -7.0863  -6.9537  -6.8825
    -6.8800  -6.8471  -6.5259  -6.5225  -6.2520  -5.3453  -5.3119  -5.1378
    -5.0599  -4.8053  -4.7923  -4.7452  -4.6173  -4.5952  -4.3497  -4.3266
    -2.9039  -2.0581  -2.0337  -1.8549  -1.6479  -1.6211  -1.4975  -1.4781
    -1.3792  -1.3627  -1.3220  -0.7143   0.8164   0.9002   0.9538   1.1960
     1.2578   1.3436   1.5861   1.5959   1.7066   1.9528

          k =-0.5000-0.8660 0.0000 ( 59292 PWs)   bands (ev):

   -72.8932 -72.8842 -44.4460 -44.3592 -44.2918 -44.2833 -44.2701 -44.2615
   -21.0453 -21.0398 -20.4650 -20.4577 -19.4233 -19.4123 -19.4101 -19.4017
   -18.9877 -18.9827 -18.3196 -18.3180 -18.3135 -18.3030 -17.7892 -17.7823
   -12.0659 -12.0613 -12.0599 -12.0517 -11.8730 -11.8673 -11.3246 -11.3214
   -10.2305 -10.2257 -10.1298 -10.1271 -10.1255 -10.1200  -8.5852  -8.5451
    -8.5418  -8.5394  -8.5381  -8.5325  -7.8586  -7.8575  -7.8539  -7.8524
    -7.8208  -7.8137  -7.7770  -7.7477  -7.4863  -7.4792  -6.6062  -6.6013
    -6.3582  -6.3217  -6.3022  -6.2914  -6.1864  -6.1803  -5.7069  -5.6923
    -5.5409  -5.5356  -4.7201  -4.7084  -4.7057  -4.6822  -3.8827  -3.8632
    -2.8863  -2.0558  -2.0316  -1.8494  -1.6456  -1.6207  -1.5005  -1.4822
    -1.3881  -1.3661  -1.3262  -0.8421   0.7852   1.0478   1.0899   1.1760
     1.3461   1.5794   1.5879   1.6111   1.6821   1.7731

          k =-0.1667 0.2887 0.0000 ( 59267 PWs)   bands (ev):

   -72.8932 -72.8842 -44.4460 -44.3592 -44.2918 -44.2832 -44.2702 -44.2616
   -21.2412 -20.6556 -20.6497 -20.1008 -20.0890 -19.5827 -19.5769 -19.0940
   -18.6918 -18.6855 -18.4540 -18.4433 -18.1891 -18.0804 -18.0729 -17.8443
   -12.4785 -12.2023 -12.1952 -11.8162 -11.8119 -11.6530 -11.1868 -11.1832
   -10.3865 -10.3625 -10.1128 -10.1095  -9.5837  -9.5826  -8.8344  -8.8192
    -8.8159  -8.7618  -8.7557  -8.5910  -8.1918  -8.0475  -8.0107  -7.8241
    -7.8208  -7.4330  -7.4318  -7.2780  -7.2537  -7.2031  -7.2003  -6.9572
    -6.9480  -6.5617  -6.5333  -6.1486  -6.1470  -5.8671  -5.4133  -5.2918
    -5.2690  -5.1946  -4.9108  -4.8923  -4.5018  -4.3518  -4.3359  -3.9748
    -2.9006  -2.0579  -2.0334  -1.8516  -1.6460  -1.6208  -1.4991  -1.4795
    -1.3802  -1.3622  -1.3229  -0.7184   0.6875   0.9220   1.0097   1.1807
     1.2901   1.4711   1.5221   1.5759   1.6090   1.7998

          k = 0.3333 0.0000 0.0000 ( 59267 PWs)   bands (ev):

   -72.8932 -72.8842 -44.4460 -44.3592 -44.2919 -44.2832 -44.2702 -44.2616
   -21.2409 -20.6785 -20.6268 -20.0976 -20.0910 -19.6060 -19.5553 -19.0957
   -18.7068 -18.6663 -18.4527 -18.4463 -18.1848 -18.1012 -18.0581 -17.8435
   -12.4784 -12.1996 -12.1975 -11.8229 -11.8072 -11.6510 -11.2038 -11.1671
   -10.3852 -10.3627 -10.1238 -10.0985  -9.5899  -9.5755  -8.8415  -8.8175
    -8.8091  -8.7803  -8.7374  -8.5921  -8.1932  -8.0959  -7.9618  -7.8227
    -7.8205  -7.4389  -7.4254  -7.2832  -7.2430  -7.2118  -7.1916  -6.9553
    -6.9508  -6.6132  -6.4897  -6.1510  -6.1438  -5.8733  -5.4129  -5.2977
    -5.2520  -5.1951  -4.9165  -4.8902  -4.4917  -4.3762  -4.3245  -3.9734
    -2.8934  -2.0564  -2.0322  -1.8525  -1.6475  -1.6210  -1.4983  -1.4802
    -1.3845  -1.3652  -1.3244  -0.8018   0.8485   0.9768   1.1456   1.2532
     1.2713   1.4472   1.5371   1.5603   1.6054   1.7963

          k =-0.1667-0.4811 0.0000 ( 59291 PWs)   bands (ev):

   -72.8932 -72.8842 -44.4460 -44.3592 -44.2918 -44.2833 -44.2702 -44.2615
   -21.1106 -20.9070 -20.7173 -20.1552 -19.7988 -19.4612 -19.3114 -19.1692
   -19.0090 -18.7736 -18.6347 -18.5394 -18.1427 -18.0850 -17.9168 -17.7185
   -12.3425 -12.1077 -12.0393 -11.9012 -11.6750 -11.6534 -11.5474 -10.9369
   -10.8846 -10.6183 -10.5181  -9.8547  -9.6879  -9.3310  -9.1056  -8.6627
    -8.6173  -8.5475  -8.3838  -8.3632  -8.1559  -8.1184  -8.0577  -8.0444
    -7.6824  -7.6179  -7.4885  -7.4687  -7.3517  -7.1656  -7.0625  -6.8557
    -6.6168  -6.3849  -6.1728  -6.1526  -5.9670  -5.9239  -5.7779  -5.7414
    -5.4460  -5.3934  -5.2046  -5.0372  -4.4393  -4.3434  -4.0841  -3.7621
    -2.8977  -2.0576  -2.0332  -1.8483  -1.6451  -1.6206  -1.5010  -1.4807
    -1.3811  -1.3617  -1.3239  -0.7222   0.5945   0.9204   1.0081   1.1089
     1.2338   1.2829   1.3863   1.8435   1.9187   2.1254

          k = 0.5000-0.0962 0.0000 ( 59291 PWs)   bands (ev):

   -72.8932 -72.8842 -44.4460 -44.3592 -44.2918 -44.2832 -44.2702 -44.2616
   -21.1082 -20.9137 -20.7129 -20.1535 -19.7991 -19.4628 -19.3167 -19.1647
   -19.0098 -18.7741 -18.6258 -18.5450 -18.1315 -18.1001 -17.9141 -17.7182
   -12.3418 -12.1079 -12.0375 -11.9048 -11.6860 -11.6401 -11.5496 -10.9370
   -10.8827 -10.6168 -10.5202  -9.8525  -9.6886  -9.3319  -9.1050  -8.6529
    -8.6176  -8.5458  -8.3941  -8.3862  -8.1541  -8.0992  -8.0694  -8.0339
    -7.6792  -7.6185  -7.4877  -7.4699  -7.3450  -7.1668  -7.0629  -6.8557
    -6.6169  -6.3943  -6.1893  -6.1518  -5.9528  -5.9230  -5.7774  -5.7425
    -5.4472  -5.3929  -5.1819  -5.0522  -4.4152  -4.3727  -4.0813  -3.7618
    -2.8865  -2.0557  -2.0316  -1.8495  -1.6461  -1.6208  -1.5005  -1.4822
    -1.3881  -1.3662  -1.3262  -0.8418   0.7743   1.0240   1.0803   1.1886
     1.2871   1.3424   1.5091   1.7557   1.8435   1.9040

          k =-0.3333-0.3849 0.0000 ( 59291 PWs)   bands (ev):

   -72.8932 -72.8842 -44.4460 -44.3592 -44.2918 -44.2833 -44.2702 -44.2616
   -21.1090 -20.9114 -20.7146 -20.1534 -19.8007 -19.4611 -19.3123 -19.1677
   -19.0124 -18.7727 -18.6271 -18.5441 -18.1337 -18.0974 -17.9142 -17.7184
   -12.3421 -12.1065 -12.0394 -11.9040 -11.6758 -11.6513 -11.5487 -10.9369
   -10.8823 -10.6161 -10.5212  -9.8535  -9.6887  -9.3311  -9.1056  -8.6559
    -8.6167  -8.5479  -8.3850  -8.3820  -8.1557  -8.1064  -8.0576  -8.0463
    -7.6796  -7.6168  -7.4941  -7.4642  -7.3439  -7.1670  -7.0634  -6.8636
    -6.6152  -6.3854  -6.1738  -6.1538  -5.9653  -5.9222  -5.7777  -5.7521
    -5.4469  -5.3881  -5.1817  -5.0525  -4.4189  -4.3695  -4.0804  -3.7621
    -2.8901  -2.0565  -2.0323  -1.8491  -1.6454  -1.6207  -1.5009  -1.4816
    -1.3858  -1.3647  -1.3254  -0.8053   0.7082   1.0245   1.0896   1.1436
     1.2033   1.3812   1.4040   1.8065   1.9144   1.9255

          k = 0.5000 0.0962 0.0000 ( 59291 PWs)   bands (ev):

   -72.8932 -72.8842 -44.4460 -44.3592 -44.2918 -44.2832 -44.2702 -44.2616
   -21.1082 -20.9137 -20.7129 -20.1535 -19.7991 -19.4628 -19.3167 -19.1647
   -19.0098 -18.7741 -18.6258 -18.5450 -18.1315 -18.1001 -17.9141 -17.7182
   -12.3418 -12.1080 -12.0375 -11.9048 -11.6860 -11.6401 -11.5496 -10.9370
   -10.8827 -10.6168 -10.5203  -9.8525  -9.6886  -9.3319  -9.1050  -8.6529
    -8.6176  -8.5458  -8.3941  -8.3862  -8.1541  -8.0992  -8.0694  -8.0339
    -7.6792  -7.6184  -7.4877  -7.4699  -7.3450  -7.1669  -7.0629  -6.8558
    -6.6169  -6.3943  -6.1893  -6.1518  -5.9528  -5.9230  -5.7775  -5.7425
    -5.4472  -5.3929  -5.1819  -5.0522  -4.4152  -4.3727  -4.0813  -3.7618
    -2.8865  -2.0557  -2.0316  -1.8495  -1.6461  -1.6208  -1.5005  -1.4822
    -1.3881  -1.3662  -1.3262  -0.8418   0.7743   1.0240   1.0803   1.1886
     1.2870   1.3424   1.5091   1.7558   1.8436   1.9040

          k =-0.3333 0.3849 0.0000 ( 59291 PWs)   bands (ev):

   -72.8932 -72.8842 -44.4460 -44.3592 -44.2918 -44.2833 -44.2702 -44.2616
   -21.1090 -20.9114 -20.7146 -20.1534 -19.8007 -19.4612 -19.3123 -19.1677
   -19.0124 -18.7727 -18.6271 -18.5441 -18.1337 -18.0974 -17.9142 -17.7184
   -12.3421 -12.1065 -12.0394 -11.9040 -11.6758 -11.6513 -11.5486 -10.9370
   -10.8823 -10.6161 -10.5212  -9.8535  -9.6887  -9.3311  -9.1056  -8.6559
    -8.6167  -8.5478  -8.3850  -8.3820  -8.1558  -8.1064  -8.0576  -8.0463
    -7.6795  -7.6168  -7.4941  -7.4642  -7.3439  -7.1670  -7.0634  -6.8636
    -6.6152  -6.3854  -6.1738  -6.1538  -5.9652  -5.9223  -5.7777  -5.7521
    -5.4468  -5.3881  -5.1817  -5.0525  -4.4189  -4.3695  -4.0803  -3.7621
    -2.8901  -2.0565  -2.0323  -1.8491  -1.6454  -1.6207  -1.5009  -1.4816
    -1.3858  -1.3647  -1.3254  -0.8053   0.7082   1.0245   1.0896   1.1436
     1.2033   1.3813   1.4040   1.8065   1.9143   1.9254

          k =-0.1667-0.0962 0.0000 ( 59226 PWs)   bands (ev):

   -72.8932 -72.8842 -44.4460 -44.3592 -44.2918 -44.2832 -44.2702 -44.2615
   -21.3077 -20.5297 -20.3408 -20.3331 -19.9830 -19.9748 -19.8007 -18.7239
   -18.7162 -18.3709 -18.3607 -18.3501 -18.2659 -18.2541 -18.0729 -18.0657
   -12.5030 -12.4958 -12.4029 -11.5760 -11.5705 -11.4231 -11.4131 -10.9209
   -10.9182  -9.9245  -9.9205  -9.6703  -9.3714  -9.3648  -9.2256  -9.2224
    -9.0371  -9.0347  -8.9187  -8.3190  -8.3156  -7.8963  -7.8933  -7.8758
    -7.8393  -7.7649  -7.6057  -7.5765  -7.1319  -7.0863  -6.9537  -6.8825
    -6.8799  -6.8471  -6.5259  -6.5225  -6.2521  -5.3453  -5.3120  -5.1377
    -5.0600  -4.8053  -4.7922  -4.7453  -4.6173  -4.5952  -4.3497  -4.3266
    -2.9039  -2.0581  -2.0337  -1.8549  -1.6479  -1.6211  -1.4975  -1.4781
    -1.3792  -1.3627  -1.3220  -0.7143   0.8164   0.9002   0.9538   1.1960
     1.2578   1.3436   1.5862   1.5959   1.7066   1.9529

          k =-0.0000-0.1925 0.0000 ( 59226 PWs)   bands (ev):

   -72.8932 -72.8842 -44.4460 -44.3592 -44.2918 -44.2832 -44.2702 -44.2615
   -21.3078 -20.5252 -20.3493 -20.3324 -19.9826 -19.9684 -19.8040 -18.7259
   -18.7110 -18.3804 -18.3734 -18.3462 -18.2509 -18.2493 -18.0786 -18.0646
   -12.5002 -12.4989 -12.4026 -11.5799 -11.5684 -11.4182 -11.4149 -10.9225
   -10.9183  -9.9249  -9.9198  -9.6710  -9.3710  -9.3645  -9.2253  -9.2227
    -9.0364  -9.0359  -8.9192  -8.3190  -8.3144  -7.8950  -7.8937  -7.8589
    -7.8378  -7.7662  -7.6280  -7.5880  -7.1088  -7.0824  -6.9523  -6.8851
    -6.8788  -6.8588  -6.5274  -6.5204  -6.2525  -5.3389  -5.3099  -5.1381
    -5.0595  -4.8374  -4.7983  -4.7444  -4.5907  -4.5838  -4.3543  -4.3311
    -2.9074  -2.0589  -2.0343  -1.8544  -1.6472  -1.6210  -1.4979  -1.4779
    -1.3771  -1.3612  -1.3212  -0.6656   0.6944   0.8475   0.9563   1.1638
     1.2477   1.3754   1.5719   1.6011   1.7213   1.9695

          k = 0.5000-0.8660 0.0000 ( 59292 PWs)   bands (ev):

   -72.8932 -72.8842 -44.4460 -44.3592 -44.2918 -44.2833 -44.2701 -44.2615
   -21.0454 -21.0397 -20.4650 -20.4577 -19.4233 -19.4123 -19.4101 -19.4017
   -18.9877 -18.9827 -18.3196 -18.3180 -18.3136 -18.3030 -17.7892 -17.7823
   -12.0660 -12.0612 -12.0600 -12.0516 -11.8730 -11.8673 -11.3247 -11.3214
   -10.2305 -10.2257 -10.1298 -10.1272 -10.1255 -10.1200  -8.5852  -8.5451
    -8.5419  -8.5394  -8.5381  -8.5324  -7.8586  -7.8575  -7.8538  -7.8524
    -7.8208  -7.8137  -7.7770  -7.7477  -7.4863  -7.4792  -6.6061  -6.6012
    -6.3581  -6.3217  -6.3022  -6.2914  -6.1864  -6.1802  -5.7069  -5.6923
    -5.5410  -5.5356  -4.7202  -4.7083  -4.7057  -4.6822  -3.8827  -3.8632
    -2.8863  -2.0558  -2.0316  -1.8494  -1.6456  -1.6207  -1.5005  -1.4822
    -1.3881  -1.3661  -1.3262  -0.8421   0.7852   1.0479   1.0900   1.1760
     1.3461   1.5793   1.5878   1.6112   1.6820   1.7731

          k =-1.0000 0.0000 0.0000 ( 59292 PWs)   bands (ev):

   -72.8932 -72.8842 -44.4461 -44.3592 -44.2918 -44.2833 -44.2702 -44.2615
   -21.0672 -21.0153 -20.4716 -20.4553 -19.4205 -19.4154 -19.4114 -19.3949
   -19.0061 -18.9661 -18.3547 -18.3385 -18.2823 -18.2791 -17.7934 -17.7796
   -12.0895 -12.0805 -12.0357 -12.0294 -11.8776 -11.8634 -11.3441 -11.3041
   -10.2400 -10.2286 -10.1288 -10.1274 -10.1185 -10.1165  -8.6255  -8.5641
    -8.5564  -8.5174  -8.5171  -8.4877  -7.8680  -7.8666  -7.8533  -7.8501
    -7.8127  -7.8100  -7.7852  -7.7539  -7.5060  -7.4612  -6.6075  -6.5984
    -6.3460  -6.3202  -6.3094  -6.2780  -6.2016  -6.1678  -5.7263  -5.6802
    -5.5589  -5.5176  -4.7973  -4.7356  -4.6500  -4.6372  -3.8853  -3.8619
    -2.9014  -2.0581  -2.0335  -1.8479  -1.6451  -1.6205  -1.5007  -1.4802
    -1.3789  -1.3603  -1.3232  -0.6743   0.5508   0.8099   1.0011   1.1049
     1.2423   1.4662   1.5944   1.6218   1.6443   1.9438

 ------ SPIN DOWN ----------


          k = 0.1667 0.2887 0.0000 ( 59267 PWs)   bands (ev):

   -68.6977 -68.6874 -40.3791 -40.2767 -40.1143 -40.1041 -40.0738 -40.0635
   -21.2371 -20.6526 -20.6447 -20.0965 -20.0853 -19.5800 -19.5715 -19.0898
   -18.6881 -18.6800 -18.4495 -18.4393 -18.1841 -18.0768 -18.0687 -17.8399
   -12.4759 -12.1992 -12.1925 -11.8136 -11.8095 -11.6507 -11.1846 -11.1798
   -10.3834 -10.3596 -10.1100 -10.1060  -9.5813  -9.5795  -8.8204  -8.8131
    -8.8092  -8.7600  -8.7523  -8.5884  -8.1893  -8.0216  -8.0013  -7.8215
    -7.8184  -7.4294  -7.4285  -7.2579  -7.2394  -7.2010  -7.1973  -6.9545
    -6.9456  -6.5387  -6.5253  -6.1458  -6.1443  -5.8502  -5.4100  -5.2678
    -5.2563  -5.1918  -4.8953  -4.8792  -4.4838  -4.3367  -4.3256  -3.9603
    -1.4546   0.3864   0.9084   1.0209   1.0948   1.1290   1.2429   1.3464
     1.3893   1.4926   1.5339   1.5987   1.6387   1.7121   1.8966   1.9359
     2.0374   2.0923   2.1613   2.1893   2.2820   2.3091

          k = 0.1667-0.4811 0.0000 ( 59291 PWs)   bands (ev):

   -68.6977 -68.6874 -40.3792 -40.2767 -40.1143 -40.1041 -40.0738 -40.0635
   -21.1062 -20.9036 -20.7131 -20.1510 -19.7948 -19.4571 -19.3074 -19.1648
   -19.0049 -18.7695 -18.6290 -18.5360 -18.1365 -18.0827 -17.9122 -17.7140
   -12.3398 -12.1050 -12.0368 -11.8988 -11.6731 -11.6502 -11.5448 -10.9339
   -10.8815 -10.6150 -10.5154  -9.8514  -9.6852  -9.3277  -9.1028  -8.6385
    -8.6146  -8.5442  -8.3814  -8.3507  -8.1533  -8.1005  -8.0554  -8.0416
    -7.6795  -7.6152  -7.4860  -7.4663  -7.3331  -7.1624  -7.0599  -6.8392
    -6.6133  -6.3686  -6.1558  -6.1498  -5.9514  -5.9205  -5.7751  -5.7251
    -5.4433  -5.3779  -5.1808  -5.0276  -4.4174  -4.3370  -4.0697  -3.7481
    -1.4452   0.3746   0.9155   0.9820   1.0333   1.0858   1.1985   1.2185
     1.3461   1.4142   1.5467   1.7394   1.7902   1.8315   1.8697   2.0828
     2.1178   2.1353   2.1591   2.2144   2.2886   2.3085

          k = 0.1667-0.0962 0.0000 ( 59226 PWs)   bands (ev):

   -68.6977 -68.6874 -40.3791 -40.2767 -40.1143 -40.1040 -40.0738 -40.0635
   -21.3037 -20.5252 -20.3367 -20.3297 -19.9780 -19.9712 -19.7971 -18.7186
   -18.7123 -18.3659 -18.3569 -18.3460 -18.2611 -18.2495 -18.0685 -18.0623
   -12.5001 -12.4933 -12.4002 -11.5732 -11.5684 -11.4201 -11.4106 -10.9178
   -10.9157  -9.9214  -9.9179  -9.6672  -9.3686  -9.3621  -9.2220  -9.2195
    -9.0343  -9.0321  -8.8995  -8.3154  -8.3125  -7.8935  -7.8904  -7.8534
    -7.8351  -7.7624  -7.5881  -7.5662  -7.1049  -7.0755  -6.9509  -6.8797
    -6.8777  -6.8361  -6.5230  -6.5200  -6.2494  -5.3208  -5.2996  -5.1348
    -5.0570  -4.7876  -4.7741  -4.7327  -4.6009  -4.5829  -4.3326  -4.3168
    -1.4640   0.4005   0.9121   1.0259   1.0657   1.1145   1.1434   1.2982
     1.4805   1.5394   1.5973   1.6421   1.7651   1.8735   1.8840   1.9220
     1.9619   2.0284   2.1171   2.1724   2.2425   2.3047

          k =-0.5000-0.8660 0.0000 ( 59292 PWs)   bands (ev):

   -68.6977 -68.6874 -40.3792 -40.2768 -40.1143 -40.1041 -40.0738 -40.0635
   -21.0425 -21.0342 -20.4607 -20.4543 -19.4174 -19.4090 -19.4059 -19.3980
   -18.9849 -18.9774 -18.3149 -18.3135 -18.3124 -18.2959 -17.7844 -17.7785
   -12.0623 -12.0590 -12.0587 -12.0478 -11.8703 -11.8653 -11.3225 -11.3179
   -10.2273 -10.2232 -10.1263 -10.1238 -10.1225 -10.1176  -8.5548  -8.5408
    -8.5399  -8.5362  -8.5313  -8.5284  -7.8556  -7.8547  -7.8512  -7.8503
    -7.8159  -7.8102  -7.7590  -7.7370  -7.4847  -7.4759  -6.6030  -6.5989
    -6.3264  -6.3013  -6.2922  -6.2810  -6.1839  -6.1767  -5.6884  -5.6820
    -5.5392  -5.5317  -4.7005  -4.6927  -4.6827  -4.6793  -3.8658  -3.8521
    -1.4223   0.1382   0.9347   0.9964   1.0860   1.1270   1.2028   1.3671
     1.5147   1.5482   1.5793   1.6971   1.7369   1.8641   1.9094   1.9493
     1.9907   2.0355   2.1778   2.2217   2.3061   2.3204

          k =-0.1667 0.2887 0.0000 ( 59267 PWs)   bands (ev):

   -68.6977 -68.6874 -40.3791 -40.2767 -40.1143 -40.1041 -40.0738 -40.0635
   -21.2371 -20.6527 -20.6447 -20.0964 -20.0853 -19.5800 -19.5715 -19.0898
   -18.6881 -18.6799 -18.4495 -18.4394 -18.1841 -18.0769 -18.0687 -17.8399
   -12.4758 -12.1992 -12.1925 -11.8137 -11.8095 -11.6507 -11.1846 -11.1798
   -10.3835 -10.3596 -10.1101 -10.1060  -9.5813  -9.5795  -8.8203  -8.8131
    -8.8092  -8.7601  -8.7523  -8.5884  -8.1893  -8.0216  -8.0013  -7.8215
    -7.8184  -7.4294  -7.4285  -7.2579  -7.2394  -7.2010  -7.1973  -6.9545
    -6.9456  -6.5387  -6.5253  -6.1458  -6.1443  -5.8502  -5.4101  -5.2678
    -5.2563  -5.1917  -4.8953  -4.8792  -4.4838  -4.3367  -4.3256  -3.9603
    -1.4546   0.3864   0.9084   1.0209   1.0949   1.1290   1.2429   1.3464
     1.3893   1.4926   1.5338   1.5987   1.6387   1.7121   1.8966   1.9359
     2.0374   2.0924   2.1614   2.1894   2.2820   2.3092

          k = 0.3333 0.0000 0.0000 ( 59267 PWs)   bands (ev):

   -68.6977 -68.6874 -40.3791 -40.2768 -40.1143 -40.1041 -40.0738 -40.0635
   -21.2368 -20.6724 -20.6249 -20.0936 -20.0870 -19.5996 -19.5533 -19.0912
   -18.7003 -18.6644 -18.4481 -18.4421 -18.1807 -18.0940 -18.0561 -17.8393
   -12.4757 -12.1970 -12.1945 -11.8202 -11.8046 -11.6490 -11.1997 -11.1654
   -10.3824 -10.3597 -10.1196 -10.0966  -9.5866  -9.5734  -8.8260  -8.8142
    -8.8014  -8.7765  -8.7361  -8.5893  -8.1904  -8.0650  -7.9578  -7.8202
    -7.8182  -7.4345  -7.4230  -7.2608  -7.2327  -7.2085  -7.1899  -6.9525
    -6.9483  -6.5837  -6.4854  -6.1481  -6.1415  -5.8544  -5.4097  -5.2787
    -5.2381  -5.1922  -4.8978  -4.8790  -4.4773  -4.3576  -4.3129  -3.9596
    -1.4400   0.2183   0.9641   1.0261   1.0947   1.1347   1.1669   1.4044
     1.4723   1.5141   1.5439   1.6699   1.7761   1.8418   1.9017   1.9187
     2.0032   2.0636   2.1243   2.1753   2.2924   2.3650

          k =-0.1667-0.4811 0.0000 ( 59291 PWs)   bands (ev):

   -68.6977 -68.6874 -40.3792 -40.2767 -40.1143 -40.1041 -40.0738 -40.0635
   -21.1062 -20.9036 -20.7131 -20.1510 -19.7948 -19.4571 -19.3074 -19.1648
   -19.0049 -18.7695 -18.6290 -18.5360 -18.1366 -18.0827 -17.9122 -17.7140
   -12.3398 -12.1050 -12.0368 -11.8987 -11.6731 -11.6502 -11.5448 -10.9339
   -10.8815 -10.6150 -10.5154  -9.8514  -9.6852  -9.3278  -9.1029  -8.6385
    -8.6146  -8.5443  -8.3813  -8.3507  -8.1533  -8.1005  -8.0555  -8.0417
    -7.6795  -7.6153  -7.4859  -7.4663  -7.3331  -7.1623  -7.0599  -6.8392
    -6.6133  -6.3686  -6.1558  -6.1498  -5.9514  -5.9205  -5.7751  -5.7251
    -5.4433  -5.3779  -5.1808  -5.0276  -4.4174  -4.3370  -4.0697  -3.7481
    -1.4452   0.3746   0.9155   0.9820   1.0333   1.0858   1.1985   1.2185
     1.3461   1.4142   1.5467   1.7394   1.7902   1.8316   1.8696   2.0828
     2.1177   2.1353   2.1591   2.2144   2.2886   2.3085

          k = 0.5000-0.0962 0.0000 ( 59291 PWs)   bands (ev):

   -68.6977 -68.6874 -40.3791 -40.2768 -40.1143 -40.1041 -40.0738 -40.0635
   -21.1041 -20.9092 -20.7094 -20.1496 -19.7950 -19.4583 -19.3118 -19.1612
   -19.0055 -18.7699 -18.6220 -18.5405 -18.1275 -18.0947 -17.9101 -17.7138
   -12.3391 -12.1053 -12.0351 -11.9019 -11.6829 -11.6384 -11.5467 -10.9341
   -10.8798 -10.6137 -10.5173  -9.8496  -9.6858  -9.3286  -9.1024  -8.6317
    -8.6149  -8.5429  -8.3844  -8.3711  -8.1517  -8.0874  -8.0657  -8.0325
    -7.6768  -7.6158  -7.4852  -7.4673  -7.3286  -7.1635  -7.0602  -6.8394
    -6.6135  -6.3739  -6.1678  -6.1492  -5.9418  -5.9198  -5.7746  -5.7260
    -5.4443  -5.3777  -5.1654  -5.0378  -4.3999  -4.3578  -4.0676  -3.7480
    -1.4224   0.1400   0.9317   1.0038   1.0609   1.1007   1.1743   1.2386
     1.3762   1.5969   1.6897   1.7630   1.8452   1.9002   1.9548   1.9918
     2.0319   2.1099   2.1924   2.2579   2.2911   2.3525

          k =-0.3333-0.3849 0.0000 ( 59291 PWs)   bands (ev):

   -68.6977 -68.6874 -40.3791 -40.2767 -40.1143 -40.1041 -40.0738 -40.0635
   -21.1048 -20.9072 -20.7108 -20.1495 -19.7963 -19.4570 -19.3082 -19.1636
   -19.0077 -18.7687 -18.6230 -18.5399 -18.1292 -18.0927 -17.9102 -17.7140
   -12.3395 -12.1039 -12.0369 -11.9012 -11.6738 -11.6484 -11.5458 -10.9339
   -10.8795 -10.6132 -10.5181  -9.8503  -9.6859  -9.3280  -9.1028  -8.6336
    -8.6140  -8.5445  -8.3823  -8.3637  -8.1531  -8.0923  -8.0554  -8.0432
    -7.6771  -7.6143  -7.4907  -7.4625  -7.3279  -7.1637  -7.0606  -6.8444
    -6.6119  -6.3688  -6.1570  -6.1507  -5.9496  -5.9191  -5.7750  -5.7326
    -5.4441  -5.3745  -5.1657  -5.0377  -4.4023  -4.3556  -4.0672  -3.7481
    -1.4301   0.2058   0.9231   0.9823   1.0563   1.0982   1.2118   1.2661
     1.3324   1.5092   1.6753   1.7620   1.8491   1.9000   1.9302   2.0022
     2.0569   2.0746   2.1428   2.2273   2.3054   2.3280

          k = 0.5000 0.0962 0.0000 ( 59291 PWs)   bands (ev):

   -68.6977 -68.6874 -40.3791 -40.2768 -40.1143 -40.1041 -40.0738 -40.0635
   -21.1041 -20.9092 -20.7094 -20.1496 -19.7950 -19.4583 -19.3118 -19.1612
   -19.0055 -18.7699 -18.6220 -18.5406 -18.1275 -18.0947 -17.9101 -17.7138
   -12.3391 -12.1053 -12.0351 -11.9019 -11.6828 -11.6384 -11.5467 -10.9340
   -10.8798 -10.6138 -10.5174  -9.8496  -9.6859  -9.3286  -9.1023  -8.6317
    -8.6149  -8.5429  -8.3844  -8.3711  -8.1517  -8.0874  -8.0657  -8.0324
    -7.6768  -7.6157  -7.4852  -7.4674  -7.3286  -7.1636  -7.0602  -6.8394
    -6.6134  -6.3739  -6.1678  -6.1492  -5.9418  -5.9197  -5.7747  -5.7260
    -5.4444  -5.3777  -5.1653  -5.0378  -4.3999  -4.3578  -4.0676  -3.7480
    -1.4224   0.1400   0.9317   1.0038   1.0610   1.1007   1.1743   1.2386
     1.3761   1.5969   1.6897   1.7630   1.8452   1.9002   1.9548   1.9918
     2.0319   2.1099   2.1924   2.2579   2.2909   2.3523

          k =-0.3333 0.3849 0.0000 ( 59291 PWs)   bands (ev):

   -68.6977 -68.6874 -40.3791 -40.2767 -40.1143 -40.1041 -40.0738 -40.0635
   -21.1048 -20.9072 -20.7108 -20.1495 -19.7963 -19.4570 -19.3082 -19.1636
   -19.0077 -18.7687 -18.6229 -18.5399 -18.1292 -18.0927 -17.9102 -17.7140
   -12.3395 -12.1039 -12.0369 -11.9012 -11.6738 -11.6484 -11.5458 -10.9340
   -10.8795 -10.6132 -10.5181  -9.8503  -9.6859  -9.3280  -9.1028  -8.6336
    -8.6141  -8.5444  -8.3823  -8.3637  -8.1532  -8.0924  -8.0554  -8.0432
    -7.6771  -7.6143  -7.4907  -7.4624  -7.3279  -7.1636  -7.0607  -6.8444
    -6.6120  -6.3688  -6.1570  -6.1507  -5.9496  -5.9192  -5.7749  -5.7326
    -5.4440  -5.3745  -5.1657  -5.0377  -4.4023  -4.3557  -4.0672  -3.7481
    -1.4301   0.2058   0.9231   0.9822   1.0563   1.0982   1.2118   1.2661
     1.3324   1.5092   1.6753   1.7620   1.8491   1.8999   1.9303   2.0022
     2.0569   2.0746   2.1429   2.2272   2.3053   2.3280

          k =-0.1667-0.0962 0.0000 ( 59226 PWs)   bands (ev):

   -68.6977 -68.6874 -40.3791 -40.2767 -40.1143 -40.1040 -40.0738 -40.0635
   -21.3037 -20.5252 -20.3367 -20.3298 -19.9780 -19.9712 -19.7971 -18.7186
   -18.7123 -18.3659 -18.3569 -18.3460 -18.2611 -18.2495 -18.0685 -18.0623
   -12.5001 -12.4933 -12.4001 -11.5732 -11.5684 -11.4201 -11.4106 -10.9178
   -10.9157  -9.9215  -9.9179  -9.6672  -9.3685  -9.3621  -9.2220  -9.2195
    -9.0343  -9.0321  -8.8995  -8.3154  -8.3125  -7.8935  -7.8904  -7.8534
    -7.8351  -7.7625  -7.5881  -7.5662  -7.1049  -7.0755  -6.9510  -6.8797
    -6.8776  -6.8361  -6.5230  -6.5200  -6.2495  -5.3208  -5.2996  -5.1347
    -5.0571  -4.7876  -4.7741  -4.7327  -4.6009  -4.5829  -4.3326  -4.3169
    -1.4640   0.4005   0.9121   1.0259   1.0657   1.1145   1.1434   1.2982
     1.4805   1.5394   1.5974   1.6421   1.7651   1.8736   1.8841   1.9220
     1.9619   2.0284   2.1170   2.1724   2.2425   2.3046

          k =-0.0000-0.1925 0.0000 ( 59226 PWs)   bands (ev):

   -68.6977 -68.6874 -40.3791 -40.2767 -40.1143 -40.1041 -40.0738 -40.0635
   -21.3038 -20.5215 -20.3445 -20.3285 -19.9785 -19.9651 -19.7998 -18.7211
   -18.7072 -18.3737 -18.3675 -18.3422 -18.2484 -18.2465 -18.0740 -18.0605
   -12.4978 -12.4959 -12.3999 -11.5770 -11.5660 -11.4158 -11.4122 -10.9195
   -10.9155  -9.9220  -9.9171  -9.6677  -9.3679  -9.3621  -9.2220  -9.2196
    -9.0337  -9.0331  -8.8999  -8.3158  -8.3112  -7.8925  -7.8912  -7.8440
    -7.8313  -7.7636  -7.6037  -7.5734  -7.0926  -7.0694  -6.9497  -6.8823
    -6.8764  -6.8444  -6.5247  -6.5180  -6.2498  -5.3193  -5.2953  -5.1351
    -5.0566  -4.8077  -4.7813  -4.7306  -4.5823  -4.5761  -4.3383  -4.3171
    -1.4709   0.5298   0.8761   0.9899   1.0797   1.1032   1.1926   1.2373
     1.4339   1.5213   1.5271   1.5861   1.7303   1.8539   1.8671   1.9107
     2.0580   2.0582   2.1330   2.1527   2.2094   2.3006

          k = 0.5000-0.8660 0.0000 ( 59292 PWs)   bands (ev):

   -68.6977 -68.6874 -40.3792 -40.2768 -40.1143 -40.1041 -40.0738 -40.0635
   -21.0426 -21.0342 -20.4607 -20.4543 -19.4174 -19.4090 -19.4059 -19.3980
   -18.9850 -18.9773 -18.3149 -18.3136 -18.3124 -18.2958 -17.7844 -17.7785
   -12.0624 -12.0590 -12.0587 -12.0477 -11.8703 -11.8653 -11.3225 -11.3179
   -10.2273 -10.2233 -10.1263 -10.1238 -10.1225 -10.1176  -8.5548  -8.5408
    -8.5400  -8.5361  -8.5313  -8.5283  -7.8556  -7.8547  -7.8512  -7.8503
    -7.8159  -7.8102  -7.7590  -7.7370  -7.4848  -7.4759  -6.6030  -6.5988
    -6.3263  -6.3013  -6.2922  -6.2810  -6.1839  -6.1766  -5.6884  -5.6820
    -5.5393  -5.5318  -4.7005  -4.6927  -4.6826  -4.6794  -3.8658  -3.8522
    -1.4223   0.1382   0.9347   0.9965   1.0860   1.1270   1.2028   1.3672
     1.5146   1.5481   1.5793   1.6971   1.7369   1.8641   1.9094   1.9493
     1.9907   2.0355   2.1777   2.2218   2.3061   2.3207

          k =-1.0000 0.0000 0.0000 ( 59292 PWs)   bands (ev):

   -68.6977 -68.6874 -40.3792 -40.2768 -40.1143 -40.1041 -40.0738 -40.0634
   -21.0613 -21.0134 -20.4670 -20.4515 -19.4161 -19.4109 -19.4073 -19.3917
   -18.9996 -18.9641 -18.3463 -18.3313 -18.2812 -18.2783 -17.7886 -17.7754
   -12.0858 -12.0758 -12.0346 -12.0283 -11.8750 -11.8614 -11.3398 -11.3024
   -10.2361 -10.2254 -10.1255 -10.1243 -10.1159 -10.1144  -8.5932  -8.5600
    -8.5525  -8.5165  -8.5156  -8.4838  -7.8646  -7.8631  -7.8506  -7.8475
    -7.8073  -7.8060  -7.7670  -7.7400  -7.5020  -7.4601  -6.6046  -6.5960
    -6.3212  -6.3007  -6.2969  -6.2688  -6.1973  -6.1657  -5.7079  -5.6671
    -5.5544  -5.5165  -4.7611  -4.7146  -4.6468  -4.6353  -3.8699  -3.8491
    -1.4524   0.4930   0.9162   1.0123   1.0444   1.0567   1.2166   1.2517
     1.3383   1.3478   1.6255   1.6411   1.6767   1.8109   1.8142   1.8366
     2.1335   2.1474   2.1582   2.1938   2.2880   2.3076

     the Fermi energy is    -1.1628 ev

!    total energy              =   -1133.82775624 Ry

     total all-electron energy =     -6753.503459 Ry
     estimated scf accuracy    <       0.00000008 Ry
     smearing contrib. (-TS)   =      -0.00000000 Ry
     internal energy E=F+TS    =   -1133.82775624 Ry

     The total energy is F=E-TS. E is the sum of the following terms:
     one-electron contribution =   -3953.92568584 Ry
     hartree contribution      =    2005.16767050 Ry
     xc contribution           =    -186.02305663 Ry
     ewald contribution        =    1360.32966227 Ry
     DFT-D3 Dispersion         =      -0.13315958 Ry
     one-center paw contrib.   =    -359.24318696 Ry

     total magnetization       =    10.00 Bohr mag/cell
     absolute magnetization    =    10.01 Bohr mag/cell

     convergence has been achieved in  14 iterations

     Writing output data file ./mytmp/Crdimer0.1405-0.2.save/
 
     init_run     :     18.73s CPU     20.00s WALL (       1 calls)
     electrons    :    481.17s CPU    514.27s WALL (       1 calls)

     Called by init_run:
     wfcinit      :     14.01s CPU     14.79s WALL (       1 calls)
     potinit      :      1.48s CPU      1.60s WALL (       1 calls)
     hinit0       :      1.53s CPU      1.63s WALL (       1 calls)

     Called by electrons:
     c_bands      :    384.89s CPU    408.59s WALL (      14 calls)
     sum_band     :     75.02s CPU     80.33s WALL (      14 calls)
     v_of_rho     :      4.61s CPU      4.93s WALL (      15 calls)
     newd         :      9.19s CPU     12.43s WALL (      15 calls)
     PAW_pot      :      6.75s CPU      7.44s WALL (      15 calls)
     mix_rho      :      0.98s CPU      1.00s WALL (      14 calls)

     Called by c_bands:
     init_us_2    :      5.01s CPU      5.04s WALL (     870 calls)
     cegterg      :    372.56s CPU    396.20s WALL (     420 calls)

     Called by *egterg:
     cdiaghg      :     24.11s CPU     38.08s WALL (    2684 calls)
     h_psi        :    241.42s CPU    250.14s WALL (    2714 calls)
     s_psi        :     26.93s CPU     26.99s WALL (    2714 calls)
     g_psi        :      0.70s CPU      0.72s WALL (    2264 calls)

     Called by h_psi:
     h_psi:calbec :     27.86s CPU     28.50s WALL (    2714 calls)
     vloc_psi     :    184.16s CPU    192.09s WALL (    2714 calls)
     add_vuspsi   :     27.29s CPU     27.43s WALL (    2714 calls)

     General routines
     calbec       :     37.21s CPU     38.06s WALL (    3134 calls)
     fft          :      4.44s CPU      5.40s WALL (     369 calls)
     ffts         :      0.11s CPU      0.12s WALL (      58 calls)
     fftw         :    189.51s CPU    197.59s WALL (  249104 calls)
     interpolate  :      0.41s CPU      0.44s WALL (      30 calls)
 
     Parallel routines
     fft_scatt_xy :     30.70s CPU     31.83s WALL (  249531 calls)
     fft_scatt_yz :     75.10s CPU     79.78s WALL (  249531 calls)
 
     PWSCF        :   8m21.99s CPU   8m58.48s WALL

 
   This run was terminated on:  11:23:56   2Apr2021            

=------------------------------------------------------------------------------=
   JOB DONE.
=------------------------------------------------------------------------------=
