
     Program PWSCF v.6.7MaX starts on  2Apr2021 at 16:14:15 

     This program is part of the open-source Quantum ESPRESSO suite
     for quantum simulation of materials; please cite
         "P. Giannozzi et al., J. Phys.:Condens. Matter 21 395502 (2009);
         "P. Giannozzi et al., J. Phys.:Condens. Matter 29 465901 (2017);
          URL http://www.quantum-espresso.org", 
     in publications or presentations arising from this work. More details at
     http://www.quantum-espresso.org/quote

     Parallel version (MPI), running on    48 processors

     MPI processes distributed on     1 nodes
     R & G space division:  proc/nbgrp/npool/nimage =      48
     Reading input from Crdimer0.1435-0.3.scf.in

     Current dimensions of program PWSCF are:
     Max number of different atomic species (ntypx) = 10
     Max number of k-points (npk) =  40000
     Max angular momentum in pseudopotentials (lmaxx) =  3
     file N.pbe-n-kjpaw_psl.1.0.0.UPF: wavefunction(s)  2S renormalized
     file Cr.pbe-spn-kjpaw_psl.1.0.0.UPF: wavefunction(s)  3S 3P 3D renormalized
     file Cr.pbe-spn-kjpaw_psl.1.0.0.UPF: wavefunction(s)  3S 3P 3D renormalized

     --------------------------------------------
     Parameters for DFT-D3 Dispersion Correction:
     --------------------------------------------
       Reference C6 values for interpolation: 

         atom   Coordination number   C6
         B          0.000           214.36
         B          0.971           150.74
         B          1.944           106.23
         B          2.913            62.89
         B          4.586            56.06
         N          0.000            50.54
         N          0.994            44.25
         N          2.014            39.35
         N          2.990            31.16
         Cr1        0.000          1381.48
         Cr1        1.827           571.38
         Cr1       10.619           306.69
         Cr2        0.000          1381.48
         Cr2        1.827           571.38
         Cr2       10.619           306.69

       Values used:

         atom   Coordination number  R0_AB[au]  C6      C8
         B          3.338            3.039     62.89   2505.93
         B          3.335            3.039     62.89   2506.00
         B          3.337            3.039     62.89   2505.95
         B          3.335            3.039     62.89   2506.01
         B          3.379            3.039     62.86   2504.76
         B          3.335            3.039     62.89   2506.01
         N          3.135            2.478     31.22    688.69
         N          3.136            2.478     31.22    688.68
         N          3.140            2.478     31.22    688.65
         N          3.135            2.478     31.22    688.69
         N          3.153            2.478     31.21    688.53
         N          3.134            2.478     31.22    688.69
         N          3.150            2.478     31.21    688.56
         N          3.134            2.478     31.22    688.70
         N          3.134            2.478     31.22    688.70
         B          3.341            3.039     62.89   2505.87
         B          3.335            3.039     62.89   2506.00
         B          3.335            3.039     62.89   2506.01
         B          3.379            3.039     62.86   2504.76
         B          3.338            3.039     62.89   2505.93
         B          3.341            3.039     62.89   2505.87
         N          3.150            2.478     31.21    688.56
         B          3.336            3.039     62.89   2506.00
         B          3.343            3.039     62.89   2505.81
         B          3.337            3.039     62.89   2505.97
         N          3.134            2.478     31.22    688.69
         N          3.136            2.478     31.22    688.68
         N          3.134            2.478     31.22    688.70
         N          3.134            2.478     31.22    688.70
         N          3.140            2.478     31.22    688.65
         N          3.135            2.478     31.22    688.69
         B          3.337            3.039     62.89   2505.97
         Cr1        0.683            3.252   1347.21 124332.56
         Cr2        0.683            3.252   1347.21 124332.56

         Molecular C6 ( Ry / a.u.^6 ) =     78771.82


     Subspace diagonalization in iterative solution of the eigenvalue problem:
     one sub-group per band group will be used
     scalapack distributed-memory algorithm (size of sub-group:  6*  6 procs)

 
     Parallelization info
     --------------------
     sticks:   dense  smooth     PW     G-vecs:    dense   smooth      PW
     Min         235      98     26                36277     9874    1408
     Max         236      99     27                36282     9883    1425
     Sum       11311    4741   1285              1741401   474235   68095
 


     bravais-lattice index     =            4
     lattice parameter (alat)  =      18.9275  a.u.
     unit-cell volume          =   10553.3021 (a.u.)^3
     number of atoms/cell      =           34
     number of atomic types    =            4
     number of electrons       =       156.00
     number of Kohn-Sham states=           94
     kinetic-energy cutoff     =      48.0000  Ry
     charge density cutoff     =     457.0000  Ry
     scf convergence threshold =      1.0E-07
     mixing beta               =       0.5000
     number of iterations used =            8  plain     mixing
     Exchange-correlation= SLA  PW   PBX  PBC
                           (   1   4   3   4   0   0   0)

     celldm(1)=  18.927497  celldm(2)=   0.000000  celldm(3)=   1.797125
     celldm(4)=   0.000000  celldm(5)=   0.000000  celldm(6)=   0.000000

     crystal axes: (cart. coord. in units of alat)
               a(1) = (   1.000000   0.000000   0.000000 )  
               a(2) = (  -0.500000   0.866025   0.000000 )  
               a(3) = (   0.000000   0.000000   1.797125 )  

     reciprocal axes: (cart. coord. in units 2 pi/alat)
               b(1) = (  1.000000  0.577350  0.000000 )  
               b(2) = (  0.000000  1.154701  0.000000 )  
               b(3) = (  0.000000  0.000000  0.556444 )  


     PseudoPot. # 1 for B  read from file:
     /home/sf05/q-e-qe-6.7MaX-Release/pseudo/B.pbe-n-kjpaw_psl.1.0.0.UPF
     MD5 check sum: d9c678ba5d3b2fd7b74e61139c9288d8
     Pseudo is Projector augmented-wave + core cor, Zval =  3.0
     Generated using "atomic" code by A. Dal Corso  v.5.1.2
     Shape of augmentation charge: PSQ
     Using radial grid of 1059 points,  4 beta functions with: 
                l(1) =   0
                l(2) =   0
                l(3) =   1
                l(4) =   1
     Q(r) pseudized with 0 coefficients 


     PseudoPot. # 2 for N  read from file:
     /home/sf05/q-e-qe-6.7MaX-Release/pseudo/N.pbe-n-kjpaw_psl.1.0.0.UPF
     MD5 check sum: e0e4e94a9c4025c5b51bd7d8793849bd
     Pseudo is Projector augmented-wave + core cor, Zval =  5.0
     Generated using "atomic" code by A. Dal Corso  v.5.1.2
     Shape of augmentation charge: PSQ
     Using radial grid of 1085 points,  4 beta functions with: 
                l(1) =   0
                l(2) =   0
                l(3) =   1
                l(4) =   1
     Q(r) pseudized with 0 coefficients 


     PseudoPot. # 3 for Cr read from file:
     /home/sf05/q-e-qe-6.7MaX-Release/pseudo/Cr.pbe-spn-kjpaw_psl.1.0.0.UPF
     MD5 check sum: 198f1a2427a48552563eee314eba32ba
     Pseudo is Projector augmented-wave + core cor, Zval = 14.0
     Generated using &quot;atomic&quot; code by A. Dal Corso  v.6.3
     Shape of augmentation charge: PSQ
     Using radial grid of 1183 points,  6 beta functions with: 
                l(1) =   0
                l(2) =   0
                l(3) =   1
                l(4) =   1
                l(5) =   2
                l(6) =   2
     Q(r) pseudized with 0 coefficients 


     PseudoPot. # 4 for Cr read from file:
     /home/sf05/q-e-qe-6.7MaX-Release/pseudo/Cr.pbe-spn-kjpaw_psl.1.0.0.UPF
     MD5 check sum: 198f1a2427a48552563eee314eba32ba
     Pseudo is Projector augmented-wave + core cor, Zval = 14.0
     Generated using &quot;atomic&quot; code by A. Dal Corso  v.6.3
     Shape of augmentation charge: PSQ
     Using radial grid of 1183 points,  6 beta functions with: 
                l(1) =   0
                l(2) =   0
                l(3) =   1
                l(4) =   1
                l(5) =   2
                l(6) =   2
     Q(r) pseudized with 0 coefficients 


     atomic species   valence    mass     pseudopotential
        B              3.00    10.81100     B ( 1.00)
        N              5.00    14.00674     N ( 1.00)
        Cr1           14.00    51.99610     Cr( 1.00)
        Cr2           14.00    51.99610     Cr( 1.00)

     Starting magnetic structure 
     atomic species   magnetization
        B            0.000
        N            0.000
        Cr1          1.000
        Cr2          1.000

     No symmetry found



   Cartesian axes

     site n.     atom                  positions (alat units)
         1           B   tau(   1) = (  -0.1250000   0.2165064   0.8985623  )
         2           B   tau(   2) = (   0.3750000   0.6495191   0.8985623  )
         3           B   tau(   3) = (   0.2500000   0.0000000   0.8985623  )
         4           B   tau(   4) = (   0.7500000   0.0000000   0.8985623  )
         5           B   tau(   5) = (   0.1250000   0.2165064   0.8985623  )
         6           B   tau(   6) = (  -0.3750000   0.6495191   0.8985623  )
         7           N   tau(   7) = (   0.7500005   0.2886748   0.8985623  )
         8           N   tau(   8) = (   0.3750005   0.5051812   0.8985623  )
         9           N   tau(   9) = (   0.3750005   0.0721685   0.8985623  )
        10           N   tau(  10) = (   0.6250005   0.0721685   0.8985623  )
        11           N   tau(  11) = (   0.2500005   0.2886748   0.8985623  )
        12           N   tau(  12) = (   0.6250005   0.5051812   0.8985623  )
        13           N   tau(  13) = (   0.0000005   0.2886748   0.8985623  )
        14           N   tau(  14) = (   0.2500005   0.7216875   0.8985623  )
        15           N   tau(  15) = (  -0.2499995   0.7216875   0.8985623  )
        16           B   tau(  16) = (   0.0000000   0.4330127   0.8985623  )
        17           B   tau(  17) = (   0.1250000   0.6495191   0.8985623  )
        18           B   tau(  18) = (  -0.1250000   0.6495191   0.8985623  )
        19           B   tau(  19) = (   0.3750000   0.2165064   0.8985623  )
        20           B   tau(  20) = (   0.6250000   0.2165064   0.8985623  )
        21           B   tau(  21) = (   0.5000000   0.4330127   0.8985623  )
        22           N   tau(  22) = (   0.5000005   0.2886748   0.8985623  )
        23           B   tau(  23) = (  -0.2500000   0.4330127   0.8985623  )
        24           B   tau(  24) = (   0.2500000   0.4330127   0.8985623  )
        25           B   tau(  25) = (   0.5000000   0.0000000   0.8985623  )
        26           N   tau(  26) = (  -0.1249995   0.5051812   0.8985623  )
        27           N   tau(  27) = (   0.1250005   0.5051812   0.8985623  )
        28           N   tau(  28) = (   0.0000005   0.7216875   0.8985623  )
        29           N   tau(  29) = (   0.5000005   0.7216875   0.8985623  )
        30           N   tau(  30) = (   0.1250005   0.0721685   0.8985623  )
        31           N   tau(  31) = (   0.8750005   0.0721685   0.8985623  )
        32           B   tau(  32) = (   0.0000000   0.0000000   0.8985623  )
        33           Cr1 tau(  33) = (   0.3935000   0.2598076   1.2040735  )
        34           Cr2 tau(  34) = (   0.1065000   0.2598076   1.2040735  )

     number of k points=    15  Gaussian smearing, width (Ry)=  0.0000
                       cart. coord. in units 2pi/alat
        k(    1) = (   0.1666667   0.2886751   0.0000000), wk =   0.0740741
        k(    2) = (   0.1666667  -0.4811252   0.0000000), wk =   0.0740741
        k(    3) = (   0.1666667  -0.0962250   0.0000000), wk =   0.0740741
        k(    4) = (  -0.5000000  -0.8660254   0.0000000), wk =   0.0370370
        k(    5) = (  -0.1666667   0.2886751   0.0000000), wk =   0.0740741
        k(    6) = (   0.3333333   0.0000000   0.0000000), wk =   0.0740741
        k(    7) = (  -0.1666667  -0.4811252   0.0000000), wk =   0.0740741
        k(    8) = (   0.5000000  -0.0962250   0.0000000), wk =   0.0740741
        k(    9) = (  -0.3333333  -0.3849002   0.0000000), wk =   0.0740741
        k(   10) = (   0.5000000   0.0962250   0.0000000), wk =   0.0740741
        k(   11) = (  -0.3333333   0.3849002   0.0000000), wk =   0.0740741
        k(   12) = (  -0.1666667  -0.0962250   0.0000000), wk =   0.0740741
        k(   13) = (  -0.0000000  -0.1924501   0.0000000), wk =   0.0740741
        k(   14) = (   0.5000000  -0.8660254   0.0000000), wk =   0.0370370
        k(   15) = (  -1.0000000   0.0000000   0.0000000), wk =   0.0370370

     Dense  grid:  1741401 G-vectors     FFT dimensions: ( 135, 135, 240)

     Smooth grid:   474235 G-vectors     FFT dimensions: (  90,  90, 160)

     Estimated max dynamical RAM per process >     218.62 MB

     Estimated total dynamical RAM >      10.25 GB
     Generating pointlists ...
     new r_m :   0.0595 (alat units)  1.1269 (a.u.) for type    1
     new r_m :   0.0595 (alat units)  1.1269 (a.u.) for type    2
     new r_m :   0.1184 (alat units)  2.2408 (a.u.) for type    3
     new r_m :   0.1184 (alat units)  2.2408 (a.u.) for type    4

     Initial potential from superposition of free atoms

     starting charge  155.99382, renormalised to  156.00000

     negative rho (up, down):  6.705E-03 4.655E-04
     Starting wfcs are  148 randomized atomic wfcs
     Checking if some PAW data can be deallocated... 

     total cpu time spent up to now is       20.7 secs

     Self-consistent Calculation

     iteration #  1     ecut=    48.00 Ry     beta= 0.50
     Davidson diagonalization with overlap
     ethr =  1.00E-02,  avg # of iterations =  2.8

     negative rho (up, down):  4.886E-03 2.907E-03

     total cpu time spent up to now is       65.3 secs

     total energy              =   -1130.73015321 Ry
     estimated scf accuracy    <      11.38645807 Ry

     total magnetization       =    12.00 Bohr mag/cell
     absolute magnetization    =    12.12 Bohr mag/cell

     iteration #  2     ecut=    48.00 Ry     beta= 0.50
     Davidson diagonalization with overlap
     ethr =  7.30E-03,  avg # of iterations =  2.8

     negative rho (up, down):  8.472E-03 7.551E-03

     total cpu time spent up to now is      107.0 secs

     total energy              =   -1132.98944233 Ry
     estimated scf accuracy    <       3.61786490 Ry

     total magnetization       =    10.00 Bohr mag/cell
     absolute magnetization    =    10.12 Bohr mag/cell

     iteration #  3     ecut=    48.00 Ry     beta= 0.50
     Davidson diagonalization with overlap
     ethr =  2.32E-03,  avg # of iterations =  6.9

     negative rho (up, down):  3.784E-03 3.717E-03

     total cpu time spent up to now is      148.8 secs

     total energy              =   -1133.57358774 Ry
     estimated scf accuracy    <       0.78542497 Ry

     total magnetization       =    12.00 Bohr mag/cell
     absolute magnetization    =    12.06 Bohr mag/cell

     iteration #  4     ecut=    48.00 Ry     beta= 0.50
     Davidson diagonalization with overlap
     ethr =  5.03E-04,  avg # of iterations =  6.7

     negative rho (up, down):  6.977E-03 7.777E-03

     total cpu time spent up to now is      189.5 secs

     total energy              =   -1133.77650700 Ry
     estimated scf accuracy    <       0.50086945 Ry

     total magnetization       =    10.00 Bohr mag/cell
     absolute magnetization    =    10.02 Bohr mag/cell

     iteration #  5     ecut=    48.00 Ry     beta= 0.50
     Davidson diagonalization with overlap
     ethr =  3.21E-04,  avg # of iterations =  6.8

     negative rho (up, down):  4.611E-03 4.747E-03

     total cpu time spent up to now is      232.1 secs

     total energy              =   -1133.81393041 Ry
     estimated scf accuracy    <       0.03535883 Ry

     total magnetization       =    10.00 Bohr mag/cell
     absolute magnetization    =    10.03 Bohr mag/cell

     iteration #  6     ecut=    48.00 Ry     beta= 0.50
     Davidson diagonalization with overlap
     ethr =  2.27E-05,  avg # of iterations = 11.6

     negative rho (up, down):  3.833E-03 3.910E-03

     total cpu time spent up to now is      285.6 secs

     total energy              =   -1133.81879275 Ry
     estimated scf accuracy    <       0.05212543 Ry

     total magnetization       =    10.00 Bohr mag/cell
     absolute magnetization    =    10.02 Bohr mag/cell

     iteration #  7     ecut=    48.00 Ry     beta= 0.50
     Davidson diagonalization with overlap
     ethr =  2.27E-05,  avg # of iterations =  6.2

     negative rho (up, down):  3.406E-03 3.828E-03

     total cpu time spent up to now is      327.3 secs

     total energy              =   -1133.82686795 Ry
     estimated scf accuracy    <       0.00129748 Ry

     total magnetization       =    10.00 Bohr mag/cell
     absolute magnetization    =    10.02 Bohr mag/cell

     iteration #  8     ecut=    48.00 Ry     beta= 0.50
     Davidson diagonalization with overlap
     ethr =  8.32E-07,  avg # of iterations =  8.1

     negative rho (up, down):  3.216E-03 3.730E-03

     total cpu time spent up to now is      375.8 secs

     total energy              =   -1133.82750880 Ry
     estimated scf accuracy    <       0.00022821 Ry

     total magnetization       =    10.00 Bohr mag/cell
     absolute magnetization    =    10.01 Bohr mag/cell

     iteration #  9     ecut=    48.00 Ry     beta= 0.50
     Davidson diagonalization with overlap
     ethr =  1.46E-07,  avg # of iterations =  3.4

     negative rho (up, down):  3.162E-03 3.731E-03

     total cpu time spent up to now is      412.3 secs

     total energy              =   -1133.82766258 Ry
     estimated scf accuracy    <       0.00004609 Ry

     total magnetization       =    10.00 Bohr mag/cell
     absolute magnetization    =    10.01 Bohr mag/cell

     iteration # 10     ecut=    48.00 Ry     beta= 0.50
     Davidson diagonalization with overlap
     ethr =  2.95E-08,  avg # of iterations =  4.9

     negative rho (up, down):  3.151E-03 3.748E-03

     total cpu time spent up to now is      457.5 secs

     total energy              =   -1133.82772497 Ry
     estimated scf accuracy    <       0.00001706 Ry

     total magnetization       =    10.00 Bohr mag/cell
     absolute magnetization    =    10.01 Bohr mag/cell

     iteration # 11     ecut=    48.00 Ry     beta= 0.50
     Davidson diagonalization with overlap
     ethr =  1.09E-08,  avg # of iterations =  4.5

     negative rho (up, down):  3.135E-03 3.757E-03

     total cpu time spent up to now is      498.0 secs

     total energy              =   -1133.82774512 Ry
     estimated scf accuracy    <       0.00000580 Ry

     total magnetization       =    10.00 Bohr mag/cell
     absolute magnetization    =    10.01 Bohr mag/cell

     iteration # 12     ecut=    48.00 Ry     beta= 0.50
     Davidson diagonalization with overlap
     ethr =  3.72E-09,  avg # of iterations =  4.5

     negative rho (up, down):  3.129E-03 3.764E-03

     total cpu time spent up to now is      534.8 secs

     total energy              =   -1133.82775074 Ry
     estimated scf accuracy    <       0.00000090 Ry

     total magnetization       =    10.00 Bohr mag/cell
     absolute magnetization    =    10.01 Bohr mag/cell

     iteration # 13     ecut=    48.00 Ry     beta= 0.50
     Davidson diagonalization with overlap
     ethr =  5.75E-10,  avg # of iterations =  4.7

     negative rho (up, down):  3.125E-03 3.769E-03

     total cpu time spent up to now is      573.3 secs

     total energy              =   -1133.82775281 Ry
     estimated scf accuracy    <       0.00000038 Ry

     total magnetization       =    10.00 Bohr mag/cell
     absolute magnetization    =    10.01 Bohr mag/cell

     iteration # 14     ecut=    48.00 Ry     beta= 0.50
     Davidson diagonalization with overlap
     ethr =  2.47E-10,  avg # of iterations =  4.7

     negative rho (up, down):  3.124E-03 3.770E-03
 
     Magnetic moment per site:
     atom:    1    charge:    0.8810    magn:    0.0007    constr:    0.0000
     atom:    2    charge:    0.8803    magn:    0.0002    constr:    0.0000
     atom:    3    charge:    0.8798    magn:    0.0004    constr:    0.0000
     atom:    4    charge:    0.8805    magn:    0.0001    constr:    0.0000
     atom:    5    charge:    0.8806    magn:    0.0004    constr:    0.0000
     atom:    6    charge:    0.8803    magn:    0.0001    constr:    0.0000
     atom:    7    charge:    2.8610    magn:    0.0002    constr:    0.0000
     atom:    8    charge:    2.8607    magn:    0.0018    constr:    0.0000
     atom:    9    charge:    2.8606    magn:    0.0046    constr:    0.0000
     atom:   10    charge:    2.8609    magn:    0.0008    constr:    0.0000
     atom:   11    charge:    2.8605    magn:    0.0077    constr:    0.0000
     atom:   12    charge:    2.8610    magn:    0.0003    constr:    0.0000
     atom:   13    charge:    2.8596    magn:    0.0052    constr:    0.0000
     atom:   14    charge:    2.8599    magn:    0.0002    constr:    0.0000
     atom:   15    charge:    2.8599    magn:    0.0000    constr:    0.0000
     atom:   16    charge:    0.8802    magn:    0.0004    constr:    0.0000
     atom:   17    charge:    0.8799    magn:    0.0002    constr:    0.0000
     atom:   18    charge:    0.8800    magn:    0.0001    constr:    0.0000
     atom:   19    charge:    0.8801    magn:    0.0004    constr:    0.0000
     atom:   20    charge:    0.8804    magn:    0.0007    constr:    0.0000
     atom:   21    charge:    0.8799    magn:    0.0004    constr:    0.0000
     atom:   22    charge:    2.8609    magn:    0.0052    constr:    0.0000
     atom:   23    charge:    0.8803    magn:    0.0002    constr:    0.0000
     atom:   24    charge:    0.8792    magn:    0.0003    constr:    0.0000
     atom:   25    charge:    0.8800    magn:    0.0003    constr:    0.0000
     atom:   26    charge:    2.8599    magn:    0.0003    constr:    0.0000
     atom:   27    charge:    2.8596    magn:    0.0018    constr:    0.0000
     atom:   28    charge:    2.8598    magn:    0.0002    constr:    0.0000
     atom:   29    charge:    2.8596    magn:    0.0002    constr:    0.0000
     atom:   30    charge:    2.8592    magn:    0.0046    constr:    0.0000
     atom:   31    charge:    2.8596    magn:    0.0008    constr:    0.0000
     atom:   32    charge:    0.8803    magn:    0.0003    constr:    0.0000
     atom:   33    charge:   12.5574    magn:    4.2660    constr:    0.0000
     atom:   34    charge:   12.5575    magn:    4.2660    constr:    0.0000

     total cpu time spent up to now is      611.5 secs

     End of self-consistent calculation

 ------ SPIN UP ------------


          k = 0.1667 0.2887 0.0000 ( 59267 PWs)   bands (ev):

   -72.8902 -72.8835 -44.4302 -44.3609 -44.2950 -44.2883 -44.2680 -44.2608
   -21.2483 -20.6639 -20.6550 -20.1116 -20.0916 -19.5910 -19.5815 -19.1005
   -18.7006 -18.6909 -18.4639 -18.4458 -18.1955 -18.0869 -18.0774 -17.8502
   -12.4861 -12.2115 -12.1990 -11.8232 -11.8176 -11.6591 -11.1945 -11.1890
   -10.3931 -10.3692 -10.1197 -10.1148  -9.5907  -9.5888  -8.8444  -8.8260
    -8.8208  -8.7697  -8.7598  -8.5972  -8.1979  -8.0520  -8.0204  -7.8321
    -7.8262  -7.4394  -7.4379  -7.2911  -7.2540  -7.2103  -7.2062  -6.9665
    -6.9508  -6.5651  -6.5429  -6.1550  -6.1533  -5.8730  -5.4192  -5.2956
    -5.2786  -5.2011  -4.9228  -4.8934  -4.5071  -4.3584  -4.3411  -3.9806
    -2.8353  -2.0219  -1.9481  -1.8302  -1.6589  -1.6005  -1.5053  -1.4905
    -1.4519  -1.3909  -1.3315  -0.7380   0.6597   0.9709   1.0588   1.1439
     1.2759   1.4616   1.4929   1.5862   1.6046   1.7717

          k = 0.1667-0.4811 0.0000 ( 59291 PWs)   bands (ev):

   -72.8902 -72.8835 -44.4302 -44.3609 -44.2950 -44.2883 -44.2680 -44.2608
   -21.1183 -20.9128 -20.7243 -20.1622 -19.8055 -19.4677 -19.3177 -19.1763
   -19.0150 -18.7805 -18.6427 -18.5439 -18.1501 -18.0891 -17.9232 -17.7244
   -12.3504 -12.1152 -12.0452 -11.9076 -11.6817 -11.6586 -11.5537 -10.9425
   -10.8920 -10.6257 -10.5236  -9.8615  -9.6946  -9.3370  -9.1119  -8.6715
    -8.6241  -8.5545  -8.3897  -8.3676  -8.1623  -8.1266  -8.0647  -8.0501
    -7.6898  -7.6242  -7.4956  -7.4744  -7.3591  -7.1721  -7.0683  -6.8629
    -6.6228  -6.3903  -6.1788  -6.1585  -5.9763  -5.9298  -5.7846  -5.7452
    -5.4522  -5.4004  -5.2120  -5.0415  -4.4460  -4.3477  -4.0915  -3.7681
    -2.8323  -2.0219  -1.9477  -1.8269  -1.6576  -1.6008  -1.5083  -1.4915
    -1.4529  -1.3906  -1.3314  -0.7417   0.5740   0.9598   1.0521   1.1191
     1.2016   1.2574   1.3557   1.8414   1.8999   2.1364

          k = 0.1667-0.0962 0.0000 ( 59226 PWs)   bands (ev):

   -72.8902 -72.8835 -44.4302 -44.3609 -44.2950 -44.2882 -44.2680 -44.2608
   -21.3147 -20.5377 -20.3465 -20.3400 -19.9885 -19.9829 -19.8061 -18.7294
   -18.7253 -18.3801 -18.3634 -18.3595 -18.2740 -18.2562 -18.0767 -18.0725
   -12.5119 -12.5011 -12.4088 -11.5820 -11.5783 -11.4327 -11.4159 -10.9272
   -10.9248  -9.9300  -9.9282  -9.6774  -9.3805  -9.3698  -9.2313  -9.2290
    -9.0428  -9.0413  -8.9258  -8.3242  -8.3227  -7.9047  -7.8981  -7.8847
    -7.8461  -7.7711  -7.6124  -7.5828  -7.1373  -7.0940  -6.9604  -6.8885
    -6.8866  -6.8519  -6.5312  -6.5298  -6.2582  -5.3517  -5.3204  -5.1441
    -5.0661  -4.8149  -4.7895  -4.7590  -4.6250  -4.5981  -4.3534  -4.3328
    -2.8383  -2.0220  -1.9484  -1.8335  -1.6614  -1.6001  -1.5027  -1.4896
    -1.4509  -1.3913  -1.3316  -0.7340   0.7555   0.9385   1.0215   1.1679
     1.2874   1.3263   1.5742   1.5858   1.6747   1.9057

          k =-0.5000-0.8660 0.0000 ( 59292 PWs)   bands (ev):

   -72.8902 -72.8835 -44.4302 -44.3609 -44.2950 -44.2883 -44.2680 -44.2608
   -21.0545 -21.0448 -20.4703 -20.4654 -19.4303 -19.4279 -19.4106 -19.4059
   -18.9958 -18.9869 -18.3310 -18.3268 -18.3195 -18.3021 -17.7928 -17.7903
   -12.0738 -12.0711 -12.0672 -12.0536 -11.8777 -11.8757 -11.3319 -11.3272
   -10.2357 -10.2348 -10.1370 -10.1322 -10.1301 -10.1269  -8.5909  -8.5538
    -8.5495  -8.5480  -8.5460  -8.5363  -7.8664  -7.8636  -7.8618  -7.8600
    -7.8225  -7.8197  -7.7828  -7.7551  -7.4941  -7.4836  -6.6111  -6.6102
    -6.3633  -6.3299  -6.3188  -6.2881  -6.1933  -6.1856  -5.7098  -5.7015
    -5.5491  -5.5398  -4.7283  -4.7196  -4.7053  -4.6882  -3.8867  -3.8704
    -2.8193  -2.0196  -1.9473  -1.8292  -1.6584  -1.6013  -1.5077  -1.4911
    -1.4594  -1.3950  -1.3321  -0.8632   0.7484   1.0638   1.0853   1.2143
     1.4453   1.5308   1.5648   1.6057   1.6260   1.7613

          k =-0.1667 0.2887 0.0000 ( 59267 PWs)   bands (ev):

   -72.8902 -72.8835 -44.4302 -44.3609 -44.2950 -44.2883 -44.2680 -44.2608
   -21.2483 -20.6640 -20.6550 -20.1116 -20.0916 -19.5910 -19.5814 -19.1005
   -18.7007 -18.6908 -18.4639 -18.4458 -18.1955 -18.0870 -18.0773 -17.8502
   -12.4861 -12.2115 -12.1990 -11.8232 -11.8176 -11.6591 -11.1945 -11.1889
   -10.3931 -10.3692 -10.1197 -10.1148  -9.5907  -9.5887  -8.8444  -8.8259
    -8.8208  -8.7698  -8.7598  -8.5972  -8.1980  -8.0520  -8.0205  -7.8320
    -7.8262  -7.4395  -7.4379  -7.2911  -7.2540  -7.2103  -7.2061  -6.9665
    -6.9508  -6.5651  -6.5429  -6.1551  -6.1532  -5.8730  -5.4193  -5.2956
    -5.2786  -5.2010  -4.9228  -4.8934  -4.5071  -4.3584  -4.3410  -3.9805
    -2.8353  -2.0219  -1.9481  -1.8302  -1.6589  -1.6005  -1.5053  -1.4905
    -1.4519  -1.3909  -1.3315  -0.7380   0.6597   0.9709   1.0588   1.1440
     1.2758   1.4616   1.4929   1.5862   1.6046   1.7716

          k = 0.3333 0.0000 0.0000 ( 59267 PWs)   bands (ev):

   -72.8902 -72.8835 -44.4302 -44.3609 -44.2950 -44.2882 -44.2680 -44.2608
   -21.2478 -20.6888 -20.6300 -20.1120 -20.0897 -19.6159 -19.5584 -19.1027
   -18.7169 -18.6693 -18.4669 -18.4448 -18.1913 -18.1096 -18.0613 -17.8493
   -12.4845 -12.2152 -12.1962 -11.8324 -11.8112 -11.6578 -11.2110 -11.1715
   -10.3932 -10.3678 -10.1344 -10.1017  -9.5969  -9.5810  -8.8447  -8.8291
    -8.8144  -8.7901  -8.7409  -8.5976  -8.2002  -8.1073  -7.9642  -7.8301
    -7.8256  -7.4469  -7.4307  -7.3027  -7.2363  -7.2190  -7.1967  -6.9690
    -6.9502  -6.6233  -6.4923  -6.1577  -6.1497  -5.8804  -5.4196  -5.3182
    -5.2436  -5.2012  -4.9317  -4.8872  -4.4986  -4.3910  -4.3218  -3.9791
    -2.8267  -2.0203  -1.9478  -1.8318  -1.6607  -1.6008  -1.5048  -1.4900
    -1.4553  -1.3940  -1.3319  -0.8224   0.7710   1.0709   1.2040   1.2428
     1.2590   1.4596   1.5104   1.5555   1.5932   1.7357

          k =-0.1667-0.4811 0.0000 ( 59291 PWs)   bands (ev):

   -72.8902 -72.8835 -44.4302 -44.3609 -44.2950 -44.2883 -44.2680 -44.2608
   -21.1183 -20.9128 -20.7243 -20.1622 -19.8055 -19.4677 -19.3176 -19.1763
   -19.0150 -18.7805 -18.6427 -18.5439 -18.1501 -18.0890 -17.9232 -17.7244
   -12.3504 -12.1152 -12.0452 -11.9075 -11.6817 -11.6587 -11.5537 -10.9425
   -10.8920 -10.6257 -10.5236  -9.8615  -9.6946  -9.3370  -9.1120  -8.6715
    -8.6240  -8.5545  -8.3897  -8.3676  -8.1623  -8.1266  -8.0647  -8.0502
    -7.6898  -7.6243  -7.4955  -7.4744  -7.3591  -7.1720  -7.0682  -6.8629
    -6.6229  -6.3903  -6.1788  -6.1585  -5.9763  -5.9297  -5.7846  -5.7452
    -5.4522  -5.4004  -5.2120  -5.0415  -4.4460  -4.3477  -4.0915  -3.7681
    -2.8323  -2.0219  -1.9477  -1.8269  -1.6576  -1.6008  -1.5083  -1.4915
    -1.4529  -1.3906  -1.3314  -0.7417   0.5740   0.9598   1.0521   1.1191
     1.2015   1.2574   1.3557   1.8414   1.8999   2.1363

          k = 0.5000-0.0962 0.0000 ( 59291 PWs)   bands (ev):

   -72.8902 -72.8835 -44.4302 -44.3609 -44.2950 -44.2883 -44.2680 -44.2609
   -21.1152 -20.9213 -20.7187 -20.1604 -19.8055 -19.4692 -19.3249 -19.1704
   -19.0163 -18.7807 -18.6321 -18.5508 -18.1384 -18.1061 -17.9194 -17.7241
   -12.3478 -12.1161 -12.0434 -11.9124 -11.6952 -11.6439 -11.5555 -10.9441
   -10.8884 -10.6230 -10.5268  -9.8596  -9.6949  -9.3378  -9.1114  -8.6600
    -8.6244  -8.5519  -8.4051  -8.3921  -8.1603  -8.1039  -8.0776  -8.0382
    -7.6855  -7.6248  -7.4946  -7.4759  -7.3529  -7.1729  -7.0695  -6.8612
    -6.6234  -6.3990  -6.1995  -6.1581  -5.9577  -5.9297  -5.7837  -5.7494
    -5.4532  -5.4003  -5.1862  -5.0577  -4.4216  -4.3804  -4.0859  -3.7677
    -2.8193  -2.0196  -1.9473  -1.8292  -1.6590  -1.6012  -1.5078  -1.4911
    -1.4593  -1.3951  -1.3322  -0.8630   0.7308   1.0488   1.1051   1.2129
     1.2879   1.3570   1.4860   1.7530   1.8365   1.8659

          k =-0.3333-0.3849 0.0000 ( 59291 PWs)   bands (ev):

   -72.8902 -72.8835 -44.4302 -44.3609 -44.2950 -44.2883 -44.2680 -44.2608
   -21.1163 -20.9184 -20.7208 -20.1602 -19.8075 -19.4675 -19.3195 -19.1738
   -19.0197 -18.7785 -18.6336 -18.5502 -18.1406 -18.1032 -17.9195 -17.7244
   -12.3496 -12.1126 -12.0465 -11.9099 -11.6833 -11.6573 -11.5550 -10.9437
   -10.8891 -10.6225 -10.5269  -9.8595  -9.6949  -9.3383  -9.1127  -8.6632
    -8.6233  -8.5539  -8.3918  -8.3896  -8.1617  -8.1126  -8.0649  -8.0526
    -7.6861  -7.6231  -7.5012  -7.4693  -7.3511  -7.1729  -7.0701  -6.8702
    -6.6216  -6.3913  -6.1814  -6.1605  -5.9706  -5.9280  -5.7838  -5.7603
    -5.4532  -5.3932  -5.1875  -5.0589  -4.4242  -4.3772  -4.0855  -3.7680
    -2.8237  -2.0205  -1.9474  -1.8284  -1.6581  -1.6011  -1.5080  -1.4912
    -1.4575  -1.3935  -1.3320  -0.8259   0.6791   1.0371   1.1132   1.2085
     1.2242   1.3133   1.3732   1.8188   1.8883   1.9230

          k = 0.5000 0.0962 0.0000 ( 59291 PWs)   bands (ev):

   -72.8902 -72.8835 -44.4302 -44.3609 -44.2950 -44.2883 -44.2680 -44.2609
   -21.1152 -20.9213 -20.7187 -20.1604 -19.8055 -19.4692 -19.3249 -19.1704
   -19.0163 -18.7807 -18.6322 -18.5508 -18.1384 -18.1061 -17.9194 -17.7241
   -12.3478 -12.1161 -12.0434 -11.9124 -11.6951 -11.6439 -11.5555 -10.9441
   -10.8884 -10.6230 -10.5268  -9.8597  -9.6949  -9.3378  -9.1114  -8.6600
    -8.6244  -8.5519  -8.4051  -8.3921  -8.1603  -8.1039  -8.0775  -8.0381
    -7.6855  -7.6248  -7.4946  -7.4759  -7.3529  -7.1729  -7.0695  -6.8612
    -6.6233  -6.3990  -6.1994  -6.1580  -5.9577  -5.9296  -5.7838  -5.7494
    -5.4532  -5.4003  -5.1862  -5.0577  -4.4216  -4.3803  -4.0859  -3.7677
    -2.8193  -2.0196  -1.9473  -1.8292  -1.6590  -1.6012  -1.5078  -1.4911
    -1.4593  -1.3951  -1.3322  -0.8630   0.7307   1.0488   1.1051   1.2129
     1.2878   1.3570   1.4860   1.7530   1.8365   1.8659

          k =-0.3333 0.3849 0.0000 ( 59291 PWs)   bands (ev):

   -72.8902 -72.8835 -44.4302 -44.3609 -44.2950 -44.2883 -44.2680 -44.2608
   -21.1163 -20.9184 -20.7208 -20.1602 -19.8075 -19.4675 -19.3195 -19.1738
   -19.0197 -18.7785 -18.6336 -18.5502 -18.1406 -18.1032 -17.9195 -17.7244
   -12.3496 -12.1126 -12.0465 -11.9099 -11.6833 -11.6573 -11.5550 -10.9437
   -10.8891 -10.6225 -10.5269  -9.8595  -9.6948  -9.3383  -9.1127  -8.6632
    -8.6234  -8.5538  -8.3918  -8.3896  -8.1617  -8.1126  -8.0649  -8.0526
    -7.6860  -7.6231  -7.5012  -7.4693  -7.3511  -7.1729  -7.0702  -6.8702
    -6.6217  -6.3913  -6.1814  -6.1605  -5.9705  -5.9281  -5.7837  -5.7603
    -5.4531  -5.3932  -5.1875  -5.0589  -4.4242  -4.3772  -4.0855  -3.7680
    -2.8237  -2.0205  -1.9474  -1.8284  -1.6581  -1.6011  -1.5080  -1.4912
    -1.4575  -1.3935  -1.3320  -0.8259   0.6791   1.0371   1.1132   1.2084
     1.2242   1.3133   1.3732   1.8188   1.8883   1.9230

          k =-0.1667-0.0962 0.0000 ( 59226 PWs)   bands (ev):

   -72.8902 -72.8835 -44.4302 -44.3609 -44.2950 -44.2882 -44.2680 -44.2608
   -21.3147 -20.5377 -20.3465 -20.3401 -19.9885 -19.9829 -19.8061 -18.7294
   -18.7252 -18.3801 -18.3634 -18.3594 -18.2740 -18.2562 -18.0767 -18.0725
   -12.5119 -12.5011 -12.4088 -11.5820 -11.5783 -11.4327 -11.4159 -10.9272
   -10.9248  -9.9300  -9.9282  -9.6773  -9.3804  -9.3697  -9.2313  -9.2290
    -9.0428  -9.0413  -8.9258  -8.3242  -8.3228  -7.9046  -7.8981  -7.8847
    -7.8460  -7.7711  -7.6124  -7.5828  -7.1373  -7.0940  -6.9604  -6.8885
    -6.8866  -6.8519  -6.5311  -6.5297  -6.2582  -5.3517  -5.3204  -5.1440
    -5.0662  -4.8149  -4.7895  -4.7591  -4.6250  -4.5981  -4.3535  -4.3328
    -2.8383  -2.0220  -1.9484  -1.8335  -1.6614  -1.6001  -1.5027  -1.4896
    -1.4509  -1.3913  -1.3316  -0.7340   0.7555   0.9385   1.0215   1.1679
     1.2874   1.3263   1.5742   1.5858   1.6747   1.9057

          k =-0.0000-0.1925 0.0000 ( 59226 PWs)   bands (ev):

   -72.8902 -72.8835 -44.4302 -44.3609 -44.2950 -44.2883 -44.2680 -44.2608
   -21.3148 -20.5319 -20.3611 -20.3351 -19.9913 -19.9720 -19.8104 -18.7360
   -18.7140 -18.4090 -18.3617 -18.3514 -18.2552 -18.2544 -18.0873 -18.0678
   -12.5160 -12.4979 -12.4080 -11.5881 -11.5722 -11.4331 -11.4140 -10.9295
   -10.9240  -9.9344  -9.9246  -9.6771  -9.3785  -9.3689  -9.2333  -9.2287
    -9.0426  -9.0422  -8.9263  -8.3268  -8.3197  -7.9046  -7.8978  -7.8640
    -7.8435  -7.7731  -7.6433  -7.5897  -7.1173  -7.0840  -6.9589  -6.8931
    -6.8838  -6.8659  -6.5350  -6.5249  -6.2590  -5.3498  -5.3111  -5.1442
    -5.0659  -4.8617  -4.7917  -4.7490  -4.5944  -4.5895  -4.3654  -4.3321
    -2.8425  -2.0228  -1.9485  -1.8327  -1.6605  -1.5999  -1.5029  -1.4900
    -1.4494  -1.3898  -1.3314  -0.6849   0.6802   0.8519   1.0153   1.1422
     1.2186   1.3987   1.5519   1.5866   1.7066   1.9545

          k = 0.5000-0.8660 0.0000 ( 59292 PWs)   bands (ev):

   -72.8902 -72.8835 -44.4302 -44.3609 -44.2950 -44.2883 -44.2680 -44.2608
   -21.0545 -21.0447 -20.4703 -20.4654 -19.4303 -19.4279 -19.4106 -19.4059
   -18.9959 -18.9868 -18.3311 -18.3267 -18.3195 -18.3020 -17.7928 -17.7903
   -12.0738 -12.0711 -12.0674 -12.0536 -11.8777 -11.8757 -11.3320 -11.3271
   -10.2357 -10.2349 -10.1370 -10.1322 -10.1301 -10.1269  -8.5909  -8.5539
    -8.5495  -8.5481  -8.5458  -8.5362  -7.8664  -7.8636  -7.8618  -7.8599
    -7.8226  -7.8197  -7.7828  -7.7551  -7.4942  -7.4836  -6.6111  -6.6101
    -6.3633  -6.3299  -6.3188  -6.2881  -6.1933  -6.1854  -5.7098  -5.7015
    -5.5492  -5.5399  -4.7284  -4.7195  -4.7053  -4.6882  -3.8867  -3.8704
    -2.8193  -2.0196  -1.9473  -1.8292  -1.6584  -1.6013  -1.5077  -1.4911
    -1.4594  -1.3950  -1.3321  -0.8632   0.7483   1.0638   1.0854   1.2144
     1.4453   1.5308   1.5647   1.6057   1.6260   1.7609

          k =-1.0000 0.0000 0.0000 ( 59292 PWs)   bands (ev):

   -72.8902 -72.8835 -44.4302 -44.3609 -44.2950 -44.2883 -44.2680 -44.2608
   -21.0776 -21.0185 -20.4825 -20.4582 -19.4467 -19.4085 -19.4084 -19.4040
   -19.0170 -18.9688 -18.3821 -18.3155 -18.3038 -18.2776 -17.8028 -17.7827
   -12.1173 -12.0690 -12.0452 -12.0315 -11.8862 -11.8668 -11.3515 -11.3082
   -10.2554 -10.2332 -10.1348 -10.1313 -10.1248 -10.1203  -8.6364  -8.5812
    -8.5513  -8.5330  -8.5146  -8.4900  -7.8841  -7.8740  -7.8620  -7.8511
    -7.8174  -7.8124  -7.7980  -7.7556  -7.5160  -7.4645  -6.6159  -6.6017
    -6.3797  -6.3210  -6.2964  -6.2800  -6.2102  -6.1713  -5.7490  -5.6718
    -5.5685  -5.5211  -4.8173  -4.7243  -4.6639  -4.6380  -3.8971  -3.8635
    -2.8365  -2.0225  -1.9479  -1.8261  -1.6573  -1.6007  -1.5083  -1.4915
    -1.4503  -1.3891  -1.3310  -0.6932   0.5327   0.8388   1.0508   1.0919
     1.2247   1.4285   1.5729   1.6192   1.6376   1.9336

 ------ SPIN DOWN ----------


          k = 0.1667 0.2887 0.0000 ( 59267 PWs)   bands (ev):

   -68.6884 -68.6806 -40.3509 -40.2684 -40.1175 -40.1094 -40.0627 -40.0540
   -21.2442 -20.6610 -20.6499 -20.1072 -20.0879 -19.5883 -19.5762 -19.0964
   -18.6974 -18.6851 -18.4596 -18.4420 -18.1907 -18.0837 -18.0729 -17.8458
   -12.4831 -12.2083 -12.1964 -11.8207 -11.8150 -11.6568 -11.1922 -11.1854
   -10.3900 -10.3661 -10.1174 -10.1111  -9.5882  -9.5856  -8.8306  -8.8176
    -8.8157  -8.7679  -8.7566  -8.5946  -8.1955  -8.0264  -8.0104  -7.8294
    -7.8238  -7.4365  -7.4341  -7.2707  -7.2401  -7.2083  -7.2031  -6.9637
    -6.9485  -6.5425  -6.5345  -6.1524  -6.1505  -5.8565  -5.4161  -5.2760
    -5.2625  -5.1983  -4.9071  -4.8807  -4.4905  -4.3438  -4.3298  -3.9664
    -1.4275   0.3765   0.9336   1.0483   1.1039   1.1916   1.2553   1.3421
     1.3807   1.4944   1.5141   1.5717   1.6331   1.7028   1.8638   2.0196
     2.0336   2.1089   2.1388   2.1856   2.2430   2.2964

          k = 0.1667-0.4811 0.0000 ( 59291 PWs)   bands (ev):

   -68.6884 -68.6806 -40.3509 -40.2684 -40.1175 -40.1094 -40.0627 -40.0540
   -21.1139 -20.9095 -20.7200 -20.1579 -19.8016 -19.4637 -19.3138 -19.1718
   -19.0110 -18.7765 -18.6371 -18.5407 -18.1444 -18.0867 -17.9186 -17.7200
   -12.3473 -12.1122 -12.0428 -11.9050 -11.6799 -11.6556 -11.5510 -10.9397
   -10.8886 -10.6222 -10.5210  -9.8581  -9.6918  -9.3339  -9.1092  -8.6468
    -8.6214  -8.5511  -8.3874  -8.3555  -8.1597  -8.1082  -8.0626  -8.0473
    -7.6868  -7.6216  -7.4930  -7.4720  -7.3404  -7.1688  -7.0658  -6.8462
    -6.6195  -6.3746  -6.1621  -6.1559  -5.9596  -5.9266  -5.7818  -5.7302
    -5.4495  -5.3850  -5.1893  -5.0321  -4.4257  -4.3406  -4.0767  -3.7543
    -1.4180   0.3652   0.9060   0.9958   1.0825   1.1424   1.1838   1.2569
     1.3052   1.4640   1.5131   1.7435   1.7662   1.8038   1.8931   2.0833
     2.1124   2.1353   2.1677   2.1979   2.2701   2.2945

          k = 0.1667-0.0962 0.0000 ( 59226 PWs)   bands (ev):

   -68.6884 -68.6806 -40.3509 -40.2684 -40.1175 -40.1093 -40.0627 -40.0540
   -21.3106 -20.5331 -20.3426 -20.3366 -19.9838 -19.9791 -19.8026 -18.7245
   -18.7210 -18.3755 -18.3598 -18.3552 -18.2695 -18.2516 -18.0725 -18.0691
   -12.5088 -12.4984 -12.4061 -11.5791 -11.5759 -11.4296 -11.4135 -10.9241
   -10.9222  -9.9270  -9.9254  -9.6741  -9.3773  -9.3670  -9.2279  -9.2261
    -9.0401  -9.0386  -8.9064  -8.3207  -8.3196  -7.9014  -7.8956  -7.8617
    -7.8420  -7.7687  -7.5945  -7.5724  -7.1109  -7.0829  -6.9577  -6.8858
    -6.8843  -6.8411  -6.5283  -6.5274  -6.2556  -5.3279  -5.3078  -5.1412
    -5.0632  -4.7982  -4.7744  -4.7439  -4.6095  -4.5852  -4.3366  -4.3233
    -1.4368   0.3905   0.9583   1.0253   1.0690   1.1166   1.2177   1.3464
     1.4198   1.5193   1.5862   1.6314   1.7476   1.8451   1.8935   1.9270
     2.0232   2.0411   2.1118   2.1785   2.2148   2.2948

          k =-0.5000-0.8660 0.0000 ( 59292 PWs)   bands (ev):

   -68.6884 -68.6806 -40.3509 -40.2684 -40.1175 -40.1094 -40.0627 -40.0540
   -21.0516 -21.0393 -20.4663 -20.4618 -19.4257 -19.4232 -19.4063 -19.4026
   -18.9933 -18.9814 -18.3269 -18.3218 -18.3184 -18.2951 -17.7884 -17.7863
   -12.0712 -12.0676 -12.0659 -12.0498 -11.8751 -11.8735 -11.3297 -11.3235
   -10.2327 -10.2320 -10.1334 -10.1294 -10.1268 -10.1243  -8.5617  -8.5486
    -8.5464  -8.5428  -8.5411  -8.5325  -7.8633  -7.8606  -7.8593  -7.8574
    -7.8185  -7.8163  -7.7649  -7.7440  -7.4926  -7.4803  -6.6079  -6.6078
    -6.3338  -6.3124  -6.3031  -6.2791  -6.1910  -6.1819  -5.6958  -5.6871
    -5.5474  -5.5361  -4.7107  -4.7049  -4.6852  -4.6805  -3.8700  -3.8601
    -1.3934   0.1268   0.9663   0.9935   1.0629   1.2124   1.2562   1.3624
     1.4645   1.5185   1.5826   1.7087   1.7516   1.8753   1.9204   1.9253
     1.9766   2.0743   2.1908   2.2310   2.2845   2.3228

          k =-0.1667 0.2887 0.0000 ( 59267 PWs)   bands (ev):

   -68.6884 -68.6806 -40.3509 -40.2684 -40.1175 -40.1094 -40.0627 -40.0540
   -21.2442 -20.6611 -20.6499 -20.1072 -20.0879 -19.5884 -19.5762 -19.0964
   -18.6974 -18.6850 -18.4596 -18.4420 -18.1907 -18.0838 -18.0728 -17.8458
   -12.4831 -12.2083 -12.1964 -11.8207 -11.8150 -11.6569 -11.1923 -11.1853
   -10.3901 -10.3661 -10.1174 -10.1111  -9.5882  -9.5856  -8.8305  -8.8175
    -8.8157  -8.7680  -8.7566  -8.5946  -8.1955  -8.0264  -8.0104  -7.8294
    -7.8237  -7.4365  -7.4341  -7.2707  -7.2401  -7.2083  -7.2030  -6.9638
    -6.9485  -6.5424  -6.5345  -6.1525  -6.1504  -5.8565  -5.4162  -5.2760
    -5.2625  -5.1982  -4.9071  -4.8807  -4.4905  -4.3438  -4.3298  -3.9664
    -1.4275   0.3765   0.9336   1.0483   1.1039   1.1916   1.2553   1.3421
     1.3807   1.4944   1.5141   1.5717   1.6331   1.7027   1.8638   2.0196
     2.0337   2.1089   2.1389   2.1856   2.2430   2.2964

          k = 0.3333 0.0000 0.0000 ( 59267 PWs)   bands (ev):

   -68.6884 -68.6806 -40.3509 -40.2684 -40.1175 -40.1093 -40.0627 -40.0540
   -21.2438 -20.6827 -20.6281 -20.1075 -20.0863 -19.6098 -19.5563 -19.0982
   -18.7106 -18.6674 -18.4622 -18.4410 -18.1874 -18.1026 -18.0592 -17.8452
   -12.4819 -12.2111 -12.1942 -11.8290 -11.8091 -11.6555 -11.2072 -11.1698
   -10.3899 -10.3652 -10.1296 -10.1001  -9.5935  -9.5791  -8.8306  -8.8223
    -8.8086  -8.7862  -8.7396  -8.5950  -8.1973  -8.0762  -7.9602  -7.8276
    -7.8234  -7.4424  -7.4284  -7.2788  -7.2276  -7.2158  -7.1950  -6.9658
    -6.9481  -6.5945  -6.4879  -6.1547  -6.1474  -5.8617  -5.4163  -5.2951
    -5.2347  -5.1984  -4.9143  -4.8758  -4.4840  -4.3705  -4.3125  -3.9655
    -1.4117   0.2079   0.9675   1.0644   1.0980   1.1562   1.2401   1.3845
     1.4775   1.5071   1.5443   1.6137   1.7748   1.8628   1.8986   1.9191
     2.0333   2.0515   2.1383   2.1808   2.2478   2.3845

          k =-0.1667-0.4811 0.0000 ( 59291 PWs)   bands (ev):

   -68.6884 -68.6806 -40.3509 -40.2684 -40.1175 -40.1094 -40.0627 -40.0540
   -21.1139 -20.9095 -20.7200 -20.1579 -19.8016 -19.4637 -19.3138 -19.1718
   -19.0111 -18.7765 -18.6372 -18.5407 -18.1444 -18.0867 -17.9186 -17.7200
   -12.3473 -12.1122 -12.0428 -11.9050 -11.6799 -11.6556 -11.5510 -10.9397
   -10.8886 -10.6222 -10.5210  -9.8581  -9.6918  -9.3339  -9.1093  -8.6468
    -8.6213  -8.5511  -8.3873  -8.3555  -8.1596  -8.1082  -8.0626  -8.0474
    -7.6868  -7.6217  -7.4929  -7.4719  -7.3404  -7.1687  -7.0658  -6.8462
    -6.6196  -6.3746  -6.1621  -6.1559  -5.9596  -5.9265  -5.7818  -5.7302
    -5.4496  -5.3850  -5.1893  -5.0321  -4.4256  -4.3406  -4.0767  -3.7543
    -1.4180   0.3652   0.9060   0.9958   1.0825   1.1424   1.1838   1.2569
     1.3053   1.4640   1.5131   1.7435   1.7662   1.8039   1.8931   2.0833
     2.1123   2.1353   2.1677   2.1979   2.2703   2.2949

          k = 0.5000-0.0962 0.0000 ( 59291 PWs)   bands (ev):

   -68.6884 -68.6806 -40.3509 -40.2684 -40.1175 -40.1093 -40.0627 -40.0540
   -21.1112 -20.9167 -20.7153 -20.1565 -19.8016 -19.4649 -19.3200 -19.1669
   -19.0121 -18.7765 -18.6285 -18.5464 -18.1348 -18.1006 -17.9155 -17.7198
   -12.3453 -12.1130 -12.0411 -11.9092 -11.6917 -11.6424 -11.5527 -10.9409
   -10.8857 -10.6199 -10.5237  -9.8565  -9.6921  -9.3347  -9.1088  -8.6389
    -8.6214  -8.5491  -8.3926  -8.3789  -8.1578  -8.0924  -8.0740  -8.0367
    -7.6831  -7.6222  -7.4921  -7.4732  -7.3359  -7.1696  -7.0668  -6.8453
    -6.6200  -6.3799  -6.1773  -6.1555  -5.9470  -5.9263  -5.7810  -5.7327
    -5.4505  -5.3850  -5.1709  -5.0436  -4.4069  -4.3648  -4.0729  -3.7543
    -1.3934   0.1286   0.9555   0.9822   1.0688   1.1559   1.2298   1.2577
     1.3327   1.6052   1.7106   1.7346   1.8257   1.9080   1.9514   1.9886
     2.0496   2.1441   2.2046   2.2552   2.2695   2.3130

          k =-0.3333-0.3849 0.0000 ( 59291 PWs)   bands (ev):

   -68.6884 -68.6806 -40.3509 -40.2684 -40.1175 -40.1094 -40.0627 -40.0540
   -21.1122 -20.9142 -20.7171 -20.1563 -19.8032 -19.4635 -19.3154 -19.1698
   -19.0151 -18.7746 -18.6296 -18.5460 -18.1364 -18.0984 -17.9156 -17.7200
   -12.3467 -12.1101 -12.0438 -11.9071 -11.6812 -11.6543 -11.5521 -10.9405
   -10.8862 -10.6195 -10.5240  -9.8565  -9.6921  -9.3350  -9.1097  -8.6410
    -8.6207  -8.5506  -8.3888  -8.3711  -8.1592  -8.0985  -8.0628  -8.0494
    -7.6837  -7.6206  -7.4980  -7.4675  -7.3349  -7.1697  -7.0673  -6.8513
    -6.6183  -6.3750  -6.1646  -6.1572  -5.9556  -5.9250  -5.7811  -5.7406
    -5.4504  -5.3802  -5.1720  -5.0439  -4.4092  -4.3622  -4.0727  -3.7545
    -1.4018   0.1952   0.9420   0.9804   1.0611   1.1837   1.2358   1.2584
     1.3030   1.5162   1.6881   1.7554   1.8247   1.8743   1.9561   2.0128
     2.0597   2.1016   2.1436   2.2272   2.2690   2.3177

          k = 0.5000 0.0962 0.0000 ( 59291 PWs)   bands (ev):

   -68.6884 -68.6806 -40.3509 -40.2684 -40.1175 -40.1093 -40.0627 -40.0540
   -21.1112 -20.9167 -20.7153 -20.1565 -19.8016 -19.4649 -19.3200 -19.1669
   -19.0121 -18.7765 -18.6285 -18.5464 -18.1348 -18.1006 -17.9155 -17.7198
   -12.3453 -12.1130 -12.0411 -11.9092 -11.6917 -11.6423 -11.5527 -10.9409
   -10.8857 -10.6199 -10.5238  -9.8565  -9.6921  -9.3347  -9.1087  -8.6389
    -8.6214  -8.5491  -8.3926  -8.3789  -8.1578  -8.0924  -8.0740  -8.0367
    -7.6832  -7.6222  -7.4921  -7.4733  -7.3359  -7.1697  -7.0667  -6.8453
    -6.6199  -6.3799  -6.1773  -6.1554  -5.9470  -5.9263  -5.7811  -5.7327
    -5.4505  -5.3850  -5.1709  -5.0436  -4.4069  -4.3648  -4.0729  -3.7543
    -1.3934   0.1286   0.9555   0.9822   1.0688   1.1559   1.2298   1.2577
     1.3327   1.6052   1.7106   1.7347   1.8257   1.9081   1.9514   1.9886
     2.0496   2.1441   2.2046   2.2552   2.2695   2.3131

          k =-0.3333 0.3849 0.0000 ( 59291 PWs)   bands (ev):

   -68.6884 -68.6806 -40.3509 -40.2684 -40.1175 -40.1094 -40.0627 -40.0540
   -21.1122 -20.9142 -20.7170 -20.1563 -19.8032 -19.4635 -19.3154 -19.1698
   -19.0151 -18.7746 -18.6295 -18.5460 -18.1364 -18.0984 -17.9156 -17.7200
   -12.3467 -12.1101 -12.0438 -11.9071 -11.6812 -11.6543 -11.5521 -10.9406
   -10.8862 -10.6195 -10.5240  -9.8565  -9.6921  -9.3349  -9.1097  -8.6410
    -8.6207  -8.5506  -8.3888  -8.3711  -8.1592  -8.0985  -8.0628  -8.0493
    -7.6836  -7.6206  -7.4980  -7.4675  -7.3349  -7.1696  -7.0674  -6.8513
    -6.6184  -6.3749  -6.1646  -6.1572  -5.9556  -5.9251  -5.7811  -5.7407
    -5.4503  -5.3802  -5.1720  -5.0439  -4.4093  -4.3622  -4.0727  -3.7545
    -1.4018   0.1952   0.9420   0.9804   1.0611   1.1837   1.2358   1.2584
     1.3030   1.5162   1.6881   1.7554   1.8247   1.8743   1.9561   2.0127
     2.0597   2.1015   2.1436   2.2272   2.2690   2.3175

          k =-0.1667-0.0962 0.0000 ( 59226 PWs)   bands (ev):

   -68.6884 -68.6806 -40.3509 -40.2684 -40.1175 -40.1093 -40.0627 -40.0540
   -21.3106 -20.5331 -20.3426 -20.3366 -19.9838 -19.9791 -19.8026 -18.7245
   -18.7210 -18.3756 -18.3598 -18.3552 -18.2695 -18.2516 -18.0725 -18.0691
   -12.5088 -12.4984 -12.4061 -11.5791 -11.5759 -11.4296 -11.4135 -10.9241
   -10.9222  -9.9270  -9.9255  -9.6740  -9.3773  -9.3670  -9.2279  -9.2261
    -9.0401  -9.0386  -8.9064  -8.3207  -8.3197  -7.9014  -7.8956  -7.8617
    -7.8420  -7.7687  -7.5945  -7.5724  -7.1109  -7.0829  -6.9577  -6.8858
    -6.8843  -6.8411  -6.5283  -6.5273  -6.2557  -5.3279  -5.3078  -5.1411
    -5.0633  -4.7982  -4.7744  -4.7439  -4.6094  -4.5852  -4.3366  -4.3233
    -1.4368   0.3905   0.9583   1.0253   1.0690   1.1165   1.2177   1.3464
     1.4198   1.5193   1.5862   1.6314   1.7475   1.8451   1.8935   1.9270
     2.0231   2.0411   2.1121   2.1778   2.2147   2.2946

          k =-0.0000-0.1925 0.0000 ( 59226 PWs)   bands (ev):

   -68.6884 -68.6806 -40.3509 -40.2684 -40.1175 -40.1093 -40.0627 -40.0540
   -21.3108 -20.5282 -20.3562 -20.3312 -19.9873 -19.9687 -19.8062 -18.7314
   -18.7103 -18.4015 -18.3576 -18.3474 -18.2526 -18.2515 -18.0827 -18.0637
   -12.5120 -12.4960 -12.4054 -11.5854 -11.5700 -11.4294 -11.4121 -10.9265
   -10.9211  -9.9312  -9.9218  -9.6740  -9.3758  -9.3663  -9.2298  -9.2254
    -9.0397  -9.0395  -8.9068  -8.3235  -8.3164  -7.9019  -7.8955  -7.8491
    -7.8375  -7.7704  -7.6182  -7.5749  -7.1017  -7.0713  -6.9564  -6.8902
    -6.8813  -6.8510  -6.5323  -6.5225  -6.2563  -5.3309  -5.2968  -5.1413
    -5.0631  -4.8352  -4.7738  -4.7350  -4.5882  -4.5790  -4.3490  -4.3187
    -1.4442   0.5160   0.9320   1.0302   1.0332   1.1466   1.2141   1.2953
     1.3739   1.4920   1.5229   1.5685   1.7568   1.8309   1.8478   1.9947
     2.0269   2.0545   2.1003   2.1543   2.2215   2.2640

          k = 0.5000-0.8660 0.0000 ( 59292 PWs)   bands (ev):

   -68.6884 -68.6806 -40.3509 -40.2684 -40.1175 -40.1094 -40.0627 -40.0540
   -21.0517 -21.0393 -20.4663 -20.4618 -19.4257 -19.4232 -19.4063 -19.4026
   -18.9934 -18.9813 -18.3270 -18.3217 -18.3185 -18.2951 -17.7884 -17.7863
   -12.0712 -12.0676 -12.0660 -12.0497 -11.8751 -11.8735 -11.3298 -11.3234
   -10.2327 -10.2321 -10.1334 -10.1294 -10.1268 -10.1243  -8.5617  -8.5486
    -8.5464  -8.5427  -8.5411  -8.5323  -7.8633  -7.8607  -7.8593  -7.8574
    -7.8185  -7.8164  -7.7649  -7.7440  -7.4926  -7.4804  -6.6078  -6.6077
    -6.3338  -6.3123  -6.3031  -6.2791  -6.1910  -6.1817  -5.6958  -5.6871
    -5.5475  -5.5362  -4.7107  -4.7048  -4.6852  -4.6804  -3.8701  -3.8601
    -1.3934   0.1268   0.9663   0.9935   1.0630   1.2125   1.2562   1.3624
     1.4644   1.5185   1.5826   1.7086   1.7517   1.8753   1.9204   1.9253
     1.9767   2.0743   2.1908   2.2322   2.2848   2.3287

          k =-1.0000 0.0000 0.0000 ( 59292 PWs)   bands (ev):

   -68.6884 -68.6806 -40.3509 -40.2684 -40.1175 -40.1094 -40.0627 -40.0539
   -21.0717 -21.0166 -20.4779 -20.4545 -19.4416 -19.4048 -19.4047 -19.4006
   -19.0106 -18.9669 -18.3735 -18.3100 -18.3015 -18.2771 -17.7981 -17.7785
   -12.1106 -12.0667 -12.0438 -12.0307 -11.8836 -11.8649 -11.3474 -11.3066
   -10.2505 -10.2296 -10.1321 -10.1288 -10.1220 -10.1180  -8.6040  -8.5768
    -8.5484  -8.5308  -8.5140  -8.4861  -7.8798  -7.8705  -7.8588  -7.8486
    -7.8104  -7.8102  -7.7801  -7.7416  -7.5120  -7.4634  -6.6132  -6.5995
    -6.3537  -6.3007  -6.2858  -6.2721  -6.2059  -6.1693  -5.7258  -5.6632
    -5.5641  -5.5199  -4.7873  -4.7011  -4.6585  -4.6366  -3.8817  -3.8507
    -1.4258   0.4839   0.8926   1.0270   1.0713   1.1950   1.2366   1.2702
     1.2818   1.3274   1.6070   1.6349   1.6810   1.7689   1.7828   1.8990
     2.0980   2.1373   2.1436   2.2057   2.2828   2.3237

     the Fermi energy is    -1.1440 ev

!    total energy              =   -1133.82775361 Ry

     total all-electron energy =     -6753.503457 Ry
     estimated scf accuracy    <       0.00000005 Ry
     smearing contrib. (-TS)   =      -0.00000000 Ry
     internal energy E=F+TS    =   -1133.82775361 Ry

     The total energy is F=E-TS. E is the sum of the following terms:
     one-electron contribution =   -3951.21662372 Ry
     hartree contribution      =    2003.78868668 Ry
     xc contribution           =    -186.01900960 Ry
     ewald contribution        =    1358.99563256 Ry
     DFT-D3 Dispersion         =      -0.13432629 Ry
     one-center paw contrib.   =    -359.24211324 Ry

     total magnetization       =    10.00 Bohr mag/cell
     absolute magnetization    =    10.01 Bohr mag/cell

     convergence has been achieved in  14 iterations

     Writing output data file ./mytmp/Crdimer0.1435-0.3.save/
 
     init_run     :     18.89s CPU     20.38s WALL (       1 calls)
     electrons    :    545.54s CPU    591.05s WALL (       1 calls)

     Called by init_run:
     wfcinit      :     13.92s CPU     14.80s WALL (       1 calls)
     potinit      :      1.54s CPU      1.60s WALL (       1 calls)
     hinit0       :      1.51s CPU      1.61s WALL (       1 calls)

     Called by electrons:
     c_bands      :    429.99s CPU    456.33s WALL (      14 calls)
     sum_band     :     81.82s CPU     93.15s WALL (      14 calls)
     v_of_rho     :      7.65s CPU      8.33s WALL (      15 calls)
     newd         :     18.10s CPU     25.32s WALL (      15 calls)
     PAW_pot      :      7.45s CPU      7.52s WALL (      15 calls)
     mix_rho      :      1.01s CPU      1.10s WALL (      14 calls)

     Called by c_bands:
     init_us_2    :      5.02s CPU      5.05s WALL (     870 calls)
     cegterg      :    417.63s CPU    443.91s WALL (     420 calls)

     Called by *egterg:
     cdiaghg      :     25.79s CPU     41.23s WALL (    2779 calls)
     h_psi        :    247.95s CPU    257.93s WALL (    2809 calls)
     s_psi        :     27.47s CPU     27.51s WALL (    2809 calls)
     g_psi        :      0.83s CPU      0.85s WALL (    2359 calls)

     Called by h_psi:
     h_psi:calbec :     29.70s CPU     30.31s WALL (    2809 calls)
     vloc_psi     :    187.84s CPU    197.09s WALL (    2809 calls)
     add_vuspsi   :     27.78s CPU     27.86s WALL (    2809 calls)

     General routines
     calbec       :     39.44s CPU     40.21s WALL (    3229 calls)
     fft          :      9.73s CPU     14.28s WALL (     369 calls)
     ffts         :      0.13s CPU      0.16s WALL (      58 calls)
     fftw         :    193.24s CPU    202.51s WALL (  252380 calls)
     interpolate  :      0.43s CPU      0.51s WALL (      30 calls)
 
     Parallel routines
     fft_scatt_xy :     31.21s CPU     32.35s WALL (  252807 calls)
     fft_scatt_yz :     81.72s CPU     90.89s WALL (  252807 calls)
 
     PWSCF        :   9m26.46s CPU  10m16.12s WALL

 
   This run was terminated on:  16:24:31   2Apr2021            

=------------------------------------------------------------------------------=
   JOB DONE.
=------------------------------------------------------------------------------=
