
     Program PWSCF v.6.7MaX starts on  2Apr2021 at 16: 4: 6 

     This program is part of the open-source Quantum ESPRESSO suite
     for quantum simulation of materials; please cite
         "P. Giannozzi et al., J. Phys.:Condens. Matter 21 395502 (2009);
         "P. Giannozzi et al., J. Phys.:Condens. Matter 29 465901 (2017);
          URL http://www.quantum-espresso.org", 
     in publications or presentations arising from this work. More details at
     http://www.quantum-espresso.org/quote

     Parallel version (MPI), running on    48 processors

     MPI processes distributed on     1 nodes
     R & G space division:  proc/nbgrp/npool/nimage =      48
     Reading input from Crdimer0.1435-0.2.scf.in

     Current dimensions of program PWSCF are:
     Max number of different atomic species (ntypx) = 10
     Max number of k-points (npk) =  40000
     Max angular momentum in pseudopotentials (lmaxx) =  3
     file N.pbe-n-kjpaw_psl.1.0.0.UPF: wavefunction(s)  2S renormalized
     file Cr.pbe-spn-kjpaw_psl.1.0.0.UPF: wavefunction(s)  3S 3P 3D renormalized
     file Cr.pbe-spn-kjpaw_psl.1.0.0.UPF: wavefunction(s)  3S 3P 3D renormalized

     --------------------------------------------
     Parameters for DFT-D3 Dispersion Correction:
     --------------------------------------------
       Reference C6 values for interpolation: 

         atom   Coordination number   C6
         B          0.000           214.36
         B          0.971           150.74
         B          1.944           106.23
         B          2.913            62.89
         B          4.586            56.06
         N          0.000            50.54
         N          0.994            44.25
         N          2.014            39.35
         N          2.990            31.16
         Cr1        0.000          1381.48
         Cr1        1.827           571.38
         Cr1       10.619           306.69
         Cr2        0.000          1381.48
         Cr2        1.827           571.38
         Cr2       10.619           306.69

       Values used:

         atom   Coordination number  R0_AB[au]  C6      C8
         B          3.338            3.039     62.89   2505.93
         B          3.335            3.039     62.89   2506.01
         B          3.343            3.039     62.89   2505.81
         B          3.336            3.039     62.89   2506.00
         B          3.379            3.039     62.86   2504.76
         B          3.335            3.039     62.89   2506.00
         N          3.134            2.478     31.22    688.69
         N          3.135            2.478     31.22    688.69
         N          3.152            2.478     31.21    688.54
         N          3.136            2.478     31.22    688.68
         N          3.145            2.478     31.21    688.60
         N          3.134            2.478     31.22    688.70
         N          3.142            2.478     31.21    688.62
         N          3.134            2.478     31.22    688.70
         N          3.135            2.478     31.22    688.69
         B          3.337            3.039     62.89   2505.97
         B          3.335            3.039     62.89   2506.01
         B          3.335            3.039     62.89   2506.00
         B          3.379            3.039     62.86   2504.76
         B          3.338            3.039     62.89   2505.93
         B          3.337            3.039     62.89   2505.97
         N          3.142            2.478     31.21    688.62
         B          3.335            3.039     62.89   2506.01
         B          3.337            3.039     62.89   2505.95
         B          3.341            3.039     62.89   2505.87
         N          3.134            2.478     31.22    688.70
         N          3.135            2.478     31.22    688.69
         N          3.134            2.478     31.22    688.69
         N          3.134            2.478     31.22    688.69
         N          3.152            2.478     31.21    688.54
         N          3.136            2.478     31.22    688.68
         B          3.341            3.039     62.89   2505.87
         Cr1        0.683            3.252   1347.02 124314.93
         Cr2        0.683            3.252   1347.02 124314.93

         Molecular C6 ( Ry / a.u.^6 ) =     78769.60


     Subspace diagonalization in iterative solution of the eigenvalue problem:
     one sub-group per band group will be used
     scalapack distributed-memory algorithm (size of sub-group:  6*  6 procs)

 
     Parallelization info
     --------------------
     sticks:   dense  smooth     PW     G-vecs:    dense   smooth      PW
     Min         235      98     26                36277     9874    1408
     Max         236      99     27                36282     9883    1425
     Sum       11311    4741   1285              1741401   474235   68095
 


     bravais-lattice index     =            4
     lattice parameter (alat)  =      18.9275  a.u.
     unit-cell volume          =   10553.3021 (a.u.)^3
     number of atoms/cell      =           34
     number of atomic types    =            4
     number of electrons       =       156.00
     number of Kohn-Sham states=           94
     kinetic-energy cutoff     =      48.0000  Ry
     charge density cutoff     =     457.0000  Ry
     scf convergence threshold =      1.0E-07
     mixing beta               =       0.5000
     number of iterations used =            8  plain     mixing
     Exchange-correlation= SLA  PW   PBX  PBC
                           (   1   4   3   4   0   0   0)

     celldm(1)=  18.927497  celldm(2)=   0.000000  celldm(3)=   1.797125
     celldm(4)=   0.000000  celldm(5)=   0.000000  celldm(6)=   0.000000

     crystal axes: (cart. coord. in units of alat)
               a(1) = (   1.000000   0.000000   0.000000 )  
               a(2) = (  -0.500000   0.866025   0.000000 )  
               a(3) = (   0.000000   0.000000   1.797125 )  

     reciprocal axes: (cart. coord. in units 2 pi/alat)
               b(1) = (  1.000000  0.577350  0.000000 )  
               b(2) = (  0.000000  1.154701  0.000000 )  
               b(3) = (  0.000000  0.000000  0.556444 )  


     PseudoPot. # 1 for B  read from file:
     /home/sf05/q-e-qe-6.7MaX-Release/pseudo/B.pbe-n-kjpaw_psl.1.0.0.UPF
     MD5 check sum: d9c678ba5d3b2fd7b74e61139c9288d8
     Pseudo is Projector augmented-wave + core cor, Zval =  3.0
     Generated using "atomic" code by A. Dal Corso  v.5.1.2
     Shape of augmentation charge: PSQ
     Using radial grid of 1059 points,  4 beta functions with: 
                l(1) =   0
                l(2) =   0
                l(3) =   1
                l(4) =   1
     Q(r) pseudized with 0 coefficients 


     PseudoPot. # 2 for N  read from file:
     /home/sf05/q-e-qe-6.7MaX-Release/pseudo/N.pbe-n-kjpaw_psl.1.0.0.UPF
     MD5 check sum: e0e4e94a9c4025c5b51bd7d8793849bd
     Pseudo is Projector augmented-wave + core cor, Zval =  5.0
     Generated using "atomic" code by A. Dal Corso  v.5.1.2
     Shape of augmentation charge: PSQ
     Using radial grid of 1085 points,  4 beta functions with: 
                l(1) =   0
                l(2) =   0
                l(3) =   1
                l(4) =   1
     Q(r) pseudized with 0 coefficients 


     PseudoPot. # 3 for Cr read from file:
     /home/sf05/q-e-qe-6.7MaX-Release/pseudo/Cr.pbe-spn-kjpaw_psl.1.0.0.UPF
     MD5 check sum: 198f1a2427a48552563eee314eba32ba
     Pseudo is Projector augmented-wave + core cor, Zval = 14.0
     Generated using &quot;atomic&quot; code by A. Dal Corso  v.6.3
     Shape of augmentation charge: PSQ
     Using radial grid of 1183 points,  6 beta functions with: 
                l(1) =   0
                l(2) =   0
                l(3) =   1
                l(4) =   1
                l(5) =   2
                l(6) =   2
     Q(r) pseudized with 0 coefficients 


     PseudoPot. # 4 for Cr read from file:
     /home/sf05/q-e-qe-6.7MaX-Release/pseudo/Cr.pbe-spn-kjpaw_psl.1.0.0.UPF
     MD5 check sum: 198f1a2427a48552563eee314eba32ba
     Pseudo is Projector augmented-wave + core cor, Zval = 14.0
     Generated using &quot;atomic&quot; code by A. Dal Corso  v.6.3
     Shape of augmentation charge: PSQ
     Using radial grid of 1183 points,  6 beta functions with: 
                l(1) =   0
                l(2) =   0
                l(3) =   1
                l(4) =   1
                l(5) =   2
                l(6) =   2
     Q(r) pseudized with 0 coefficients 


     atomic species   valence    mass     pseudopotential
        B              3.00    10.81100     B ( 1.00)
        N              5.00    14.00674     N ( 1.00)
        Cr1           14.00    51.99610     Cr( 1.00)
        Cr2           14.00    51.99610     Cr( 1.00)

     Starting magnetic structure 
     atomic species   magnetization
        B            0.000
        N            0.000
        Cr1          1.000
        Cr2          1.000

     No symmetry found



   Cartesian axes

     site n.     atom                  positions (alat units)
         1           B   tau(   1) = (  -0.1250000   0.2165064   0.8985623  )
         2           B   tau(   2) = (   0.3750000   0.6495191   0.8985623  )
         3           B   tau(   3) = (   0.2500000   0.0000000   0.8985623  )
         4           B   tau(   4) = (   0.7500000   0.0000000   0.8985623  )
         5           B   tau(   5) = (   0.1250000   0.2165064   0.8985623  )
         6           B   tau(   6) = (  -0.3750000   0.6495191   0.8985623  )
         7           N   tau(   7) = (   0.7500005   0.2886748   0.8985623  )
         8           N   tau(   8) = (   0.3750005   0.5051812   0.8985623  )
         9           N   tau(   9) = (   0.3750005   0.0721685   0.8985623  )
        10           N   tau(  10) = (   0.6250005   0.0721685   0.8985623  )
        11           N   tau(  11) = (   0.2500005   0.2886748   0.8985623  )
        12           N   tau(  12) = (   0.6250005   0.5051812   0.8985623  )
        13           N   tau(  13) = (   0.0000005   0.2886748   0.8985623  )
        14           N   tau(  14) = (   0.2500005   0.7216875   0.8985623  )
        15           N   tau(  15) = (  -0.2499995   0.7216875   0.8985623  )
        16           B   tau(  16) = (   0.0000000   0.4330127   0.8985623  )
        17           B   tau(  17) = (   0.1250000   0.6495191   0.8985623  )
        18           B   tau(  18) = (  -0.1250000   0.6495191   0.8985623  )
        19           B   tau(  19) = (   0.3750000   0.2165064   0.8985623  )
        20           B   tau(  20) = (   0.6250000   0.2165064   0.8985623  )
        21           B   tau(  21) = (   0.5000000   0.4330127   0.8985623  )
        22           N   tau(  22) = (   0.5000005   0.2886748   0.8985623  )
        23           B   tau(  23) = (  -0.2500000   0.4330127   0.8985623  )
        24           B   tau(  24) = (   0.2500000   0.4330127   0.8985623  )
        25           B   tau(  25) = (   0.5000000   0.0000000   0.8985623  )
        26           N   tau(  26) = (  -0.1249995   0.5051812   0.8985623  )
        27           N   tau(  27) = (   0.1250005   0.5051812   0.8985623  )
        28           N   tau(  28) = (   0.0000005   0.7216875   0.8985623  )
        29           N   tau(  29) = (   0.5000005   0.7216875   0.8985623  )
        30           N   tau(  30) = (   0.1250005   0.0721685   0.8985623  )
        31           N   tau(  31) = (   0.8750005   0.0721685   0.8985623  )
        32           B   tau(  32) = (   0.0000000   0.0000000   0.8985623  )
        33           Cr1 tau(  33) = (   0.3935000   0.1732051   1.2040735  )
        34           Cr2 tau(  34) = (   0.1065000   0.1732051   1.2040735  )

     number of k points=    15  Gaussian smearing, width (Ry)=  0.0000
                       cart. coord. in units 2pi/alat
        k(    1) = (   0.1666667   0.2886751   0.0000000), wk =   0.0740741
        k(    2) = (   0.1666667  -0.4811252   0.0000000), wk =   0.0740741
        k(    3) = (   0.1666667  -0.0962250   0.0000000), wk =   0.0740741
        k(    4) = (  -0.5000000  -0.8660254   0.0000000), wk =   0.0370370
        k(    5) = (  -0.1666667   0.2886751   0.0000000), wk =   0.0740741
        k(    6) = (   0.3333333   0.0000000   0.0000000), wk =   0.0740741
        k(    7) = (  -0.1666667  -0.4811252   0.0000000), wk =   0.0740741
        k(    8) = (   0.5000000  -0.0962250   0.0000000), wk =   0.0740741
        k(    9) = (  -0.3333333  -0.3849002   0.0000000), wk =   0.0740741
        k(   10) = (   0.5000000   0.0962250   0.0000000), wk =   0.0740741
        k(   11) = (  -0.3333333   0.3849002   0.0000000), wk =   0.0740741
        k(   12) = (  -0.1666667  -0.0962250   0.0000000), wk =   0.0740741
        k(   13) = (  -0.0000000  -0.1924501   0.0000000), wk =   0.0740741
        k(   14) = (   0.5000000  -0.8660254   0.0000000), wk =   0.0370370
        k(   15) = (  -1.0000000   0.0000000   0.0000000), wk =   0.0370370

     Dense  grid:  1741401 G-vectors     FFT dimensions: ( 135, 135, 240)

     Smooth grid:   474235 G-vectors     FFT dimensions: (  90,  90, 160)

     Estimated max dynamical RAM per process >     218.62 MB

     Estimated total dynamical RAM >      10.25 GB
     Generating pointlists ...
     new r_m :   0.0595 (alat units)  1.1269 (a.u.) for type    1
     new r_m :   0.0595 (alat units)  1.1269 (a.u.) for type    2
     new r_m :   0.1184 (alat units)  2.2408 (a.u.) for type    3
     new r_m :   0.1184 (alat units)  2.2408 (a.u.) for type    4

     Initial potential from superposition of free atoms

     starting charge  155.99382, renormalised to  156.00000

     negative rho (up, down):  6.709E-03 4.655E-04
     Starting wfcs are  148 randomized atomic wfcs
     Checking if some PAW data can be deallocated... 

     total cpu time spent up to now is       20.0 secs

     Self-consistent Calculation

     iteration #  1     ecut=    48.00 Ry     beta= 0.50
     Davidson diagonalization with overlap
     ethr =  1.00E-02,  avg # of iterations =  2.8

     negative rho (up, down):  4.893E-03 2.913E-03

     total cpu time spent up to now is       64.9 secs

     total energy              =   -1130.73502364 Ry
     estimated scf accuracy    <      11.37741541 Ry

     total magnetization       =    12.00 Bohr mag/cell
     absolute magnetization    =    12.13 Bohr mag/cell

     iteration #  2     ecut=    48.00 Ry     beta= 0.50
     Davidson diagonalization with overlap
     ethr =  7.29E-03,  avg # of iterations =  2.8

     negative rho (up, down):  8.457E-03 7.605E-03

     total cpu time spent up to now is      106.2 secs

     total energy              =   -1132.97769173 Ry
     estimated scf accuracy    <       3.63844944 Ry

     total magnetization       =    10.00 Bohr mag/cell
     absolute magnetization    =    10.10 Bohr mag/cell

     iteration #  3     ecut=    48.00 Ry     beta= 0.50
     Davidson diagonalization with overlap
     ethr =  2.33E-03,  avg # of iterations =  6.7

     negative rho (up, down):  3.804E-03 3.755E-03

     total cpu time spent up to now is      147.6 secs

     total energy              =   -1133.57683063 Ry
     estimated scf accuracy    <       0.78613828 Ry

     total magnetization       =    12.00 Bohr mag/cell
     absolute magnetization    =    12.06 Bohr mag/cell

     iteration #  4     ecut=    48.00 Ry     beta= 0.50
     Davidson diagonalization with overlap
     ethr =  5.04E-04,  avg # of iterations =  6.5

     negative rho (up, down):  6.729E-03 7.565E-03

     total cpu time spent up to now is      188.0 secs

     total energy              =   -1133.77589038 Ry
     estimated scf accuracy    <       0.49189621 Ry

     total magnetization       =    10.00 Bohr mag/cell
     absolute magnetization    =    10.02 Bohr mag/cell

     iteration #  5     ecut=    48.00 Ry     beta= 0.50
     Davidson diagonalization with overlap
     ethr =  3.15E-04,  avg # of iterations =  6.9

     negative rho (up, down):  4.543E-03 4.720E-03

     total cpu time spent up to now is      230.2 secs

     total energy              =   -1133.81258615 Ry
     estimated scf accuracy    <       0.03802631 Ry

     total magnetization       =    10.00 Bohr mag/cell
     absolute magnetization    =    10.03 Bohr mag/cell

     iteration #  6     ecut=    48.00 Ry     beta= 0.50
     Davidson diagonalization with overlap
     c_bands:  1 eigenvalues not converged
     ethr =  2.44E-05,  avg # of iterations = 10.9

     negative rho (up, down):  3.847E-03 3.918E-03

     total cpu time spent up to now is      282.4 secs

     total energy              =   -1133.81733409 Ry
     estimated scf accuracy    <       0.05849020 Ry

     total magnetization       =    10.00 Bohr mag/cell
     absolute magnetization    =    10.02 Bohr mag/cell

     iteration #  7     ecut=    48.00 Ry     beta= 0.50
     Davidson diagonalization with overlap
     ethr =  2.44E-05,  avg # of iterations =  6.1

     negative rho (up, down):  3.410E-03 3.851E-03

     total cpu time spent up to now is      324.0 secs

     total energy              =   -1133.82632420 Ry
     estimated scf accuracy    <       0.00169437 Ry

     total magnetization       =    10.00 Bohr mag/cell
     absolute magnetization    =    10.02 Bohr mag/cell

     iteration #  8     ecut=    48.00 Ry     beta= 0.50
     Davidson diagonalization with overlap
     ethr =  1.09E-06,  avg # of iterations =  8.5

     negative rho (up, down):  3.215E-03 3.746E-03

     total cpu time spent up to now is      371.0 secs

     total energy              =   -1133.82702584 Ry
     estimated scf accuracy    <       0.00024706 Ry

     total magnetization       =    10.00 Bohr mag/cell
     absolute magnetization    =    10.01 Bohr mag/cell

     iteration #  9     ecut=    48.00 Ry     beta= 0.50
     Davidson diagonalization with overlap
     ethr =  1.58E-07,  avg # of iterations =  3.4

     negative rho (up, down):  3.160E-03 3.748E-03

     total cpu time spent up to now is      406.9 secs

     total energy              =   -1133.82717940 Ry
     estimated scf accuracy    <       0.00005358 Ry

     total magnetization       =    10.00 Bohr mag/cell
     absolute magnetization    =    10.01 Bohr mag/cell

     iteration # 10     ecut=    48.00 Ry     beta= 0.50
     Davidson diagonalization with overlap
     ethr =  3.43E-08,  avg # of iterations =  4.4

     negative rho (up, down):  3.147E-03 3.764E-03

     total cpu time spent up to now is      451.8 secs

     total energy              =   -1133.82724505 Ry
     estimated scf accuracy    <       0.00001677 Ry

     total magnetization       =    10.00 Bohr mag/cell
     absolute magnetization    =    10.01 Bohr mag/cell

     iteration # 11     ecut=    48.00 Ry     beta= 0.50
     Davidson diagonalization with overlap
     ethr =  1.07E-08,  avg # of iterations =  4.5

     negative rho (up, down):  3.132E-03 3.773E-03

     total cpu time spent up to now is      492.1 secs

     total energy              =   -1133.82726519 Ry
     estimated scf accuracy    <       0.00000726 Ry

     total magnetization       =    10.00 Bohr mag/cell
     absolute magnetization    =    10.01 Bohr mag/cell

     iteration # 12     ecut=    48.00 Ry     beta= 0.50
     Davidson diagonalization with overlap
     ethr =  4.65E-09,  avg # of iterations =  4.5

     negative rho (up, down):  3.127E-03 3.781E-03

     total cpu time spent up to now is      528.4 secs

     total energy              =   -1133.82727095 Ry
     estimated scf accuracy    <       0.00000118 Ry

     total magnetization       =    10.00 Bohr mag/cell
     absolute magnetization    =    10.01 Bohr mag/cell

     iteration # 13     ecut=    48.00 Ry     beta= 0.50
     Davidson diagonalization with overlap
     ethr =  7.56E-10,  avg # of iterations =  4.6

     negative rho (up, down):  3.123E-03 3.786E-03

     total cpu time spent up to now is      566.2 secs

     total energy              =   -1133.82727316 Ry
     estimated scf accuracy    <       0.00000043 Ry

     total magnetization       =    10.00 Bohr mag/cell
     absolute magnetization    =    10.01 Bohr mag/cell

     iteration # 14     ecut=    48.00 Ry     beta= 0.50
     Davidson diagonalization with overlap
     ethr =  2.74E-10,  avg # of iterations =  4.7

     negative rho (up, down):  3.121E-03 3.787E-03
 
     Magnetic moment per site:
     atom:    1    charge:    0.8809    magn:    0.0003    constr:    0.0000
     atom:    2    charge:    0.8803    magn:    0.0001    constr:    0.0000
     atom:    3    charge:    0.8795    magn:    0.0008    constr:    0.0000
     atom:    4    charge:    0.8806    magn:    0.0002    constr:    0.0000
     atom:    5    charge:    0.8806    magn:    0.0002    constr:    0.0000
     atom:    6    charge:    0.8802    magn:    0.0001    constr:    0.0000
     atom:    7    charge:    2.8611    magn:    0.0001    constr:    0.0000
     atom:    8    charge:    2.8608    magn:    0.0005    constr:    0.0000
     atom:    9    charge:    2.8607    magn:    0.0071    constr:    0.0000
     atom:   10    charge:    2.8609    magn:    0.0011    constr:    0.0000
     atom:   11    charge:    2.8604    magn:    0.0060    constr:    0.0000
     atom:   12    charge:    2.8610    magn:    0.0001    constr:    0.0000
     atom:   13    charge:    2.8597    magn:    0.0043    constr:    0.0000
     atom:   14    charge:    2.8599    magn:    0.0003    constr:    0.0000
     atom:   15    charge:    2.8598    magn:    0.0004    constr:    0.0000
     atom:   16    charge:    0.8800    magn:    0.0005    constr:    0.0000
     atom:   17    charge:    0.8800    magn:    0.0001    constr:    0.0000
     atom:   18    charge:    0.8799    magn:    0.0001    constr:    0.0000
     atom:   19    charge:    0.8800    magn:    0.0002    constr:    0.0000
     atom:   20    charge:    0.8804    magn:    0.0003    constr:    0.0000
     atom:   21    charge:    0.8798    magn:    0.0005    constr:    0.0000
     atom:   22    charge:    2.8610    magn:    0.0043    constr:    0.0000
     atom:   23    charge:    0.8801    magn:    0.0002    constr:    0.0000
     atom:   24    charge:    0.8796    magn:    0.0004    constr:    0.0000
     atom:   25    charge:    0.8802    magn:    0.0003    constr:    0.0000
     atom:   26    charge:    2.8598    magn:    0.0001    constr:    0.0000
     atom:   27    charge:    2.8597    magn:    0.0005    constr:    0.0000
     atom:   28    charge:    2.8597    magn:    0.0005    constr:    0.0000
     atom:   29    charge:    2.8596    magn:    0.0005    constr:    0.0000
     atom:   30    charge:    2.8594    magn:    0.0071    constr:    0.0000
     atom:   31    charge:    2.8596    magn:    0.0011    constr:    0.0000
     atom:   32    charge:    0.8804    magn:    0.0003    constr:    0.0000
     atom:   33    charge:   12.5576    magn:    4.2648    constr:    0.0000
     atom:   34    charge:   12.5576    magn:    4.2649    constr:    0.0000

     total cpu time spent up to now is      603.5 secs

     End of self-consistent calculation

 ------ SPIN UP ------------


          k = 0.1667 0.2887 0.0000 ( 59267 PWs)   bands (ev):

   -72.8907 -72.8839 -44.4336 -44.3639 -44.2911 -44.2844 -44.2691 -44.2623
   -21.2426 -20.6574 -20.6507 -20.1025 -20.0901 -19.5845 -19.5778 -19.0954
   -18.6935 -18.6867 -18.4556 -18.4444 -18.1906 -18.0818 -18.0740 -17.8456
   -12.4799 -12.2039 -12.1963 -11.8178 -11.8131 -11.6544 -11.1885 -11.1844
   -10.3879 -10.3639 -10.1142 -10.1107  -9.5852  -9.5839  -8.8354  -8.8208
    -8.8172  -8.7636  -8.7567  -8.5924  -8.1931  -8.0477  -8.0130  -7.8256
    -7.8222  -7.4342  -7.4333  -7.2800  -7.2541  -7.2047  -7.2015  -6.9588
    -6.9491  -6.5618  -6.5356  -6.1500  -6.1484  -5.8683  -5.4146  -5.2928
    -5.2704  -5.1960  -4.9128  -4.8928  -4.5029  -4.3532  -4.3370  -3.9759
    -2.8458  -2.0157  -1.9908  -1.8232  -1.6370  -1.6124  -1.5083  -1.4919
    -1.3990  -1.3870  -1.3466  -0.7553   0.6954   0.9104   1.0166   1.1768
     1.2881   1.4688   1.5197   1.5746   1.6072   1.7993

          k = 0.1667-0.4811 0.0000 ( 59291 PWs)   bands (ev):

   -72.8907 -72.8839 -44.4336 -44.3639 -44.2911 -44.2844 -44.2691 -44.2623
   -21.1121 -20.9083 -20.7187 -20.1566 -19.8002 -19.4626 -19.3127 -19.1706
   -19.0104 -18.7750 -18.6361 -18.5407 -18.1442 -18.0862 -17.9181 -17.7198
   -12.3439 -12.1092 -12.0407 -11.9026 -11.6765 -11.6546 -11.5487 -10.9383
   -10.8860 -10.6197 -10.5194  -9.8562  -9.6893  -9.3323  -9.1069  -8.6638
    -8.6188  -8.5488  -8.3852  -8.3642  -8.1574  -8.1199  -8.0592  -8.0456
    -7.6839  -7.6192  -7.4900  -7.4700  -7.3530  -7.1669  -7.0639  -6.8568
    -6.6181  -6.3861  -6.1738  -6.1539  -5.9685  -5.9253  -5.7794  -5.7425
    -5.4473  -5.3948  -5.2058  -5.0383  -4.4406  -4.3445  -4.0854  -3.7632
    -2.8426  -2.0155  -1.9906  -1.8199  -1.6361  -1.6122  -1.5103  -1.4930
    -1.3998  -1.3866  -1.3477  -0.7590   0.6025   0.9038   1.0139   1.1079
     1.2302   1.2832   1.3841   1.8410   1.9191   2.1215

          k = 0.1667-0.0962 0.0000 ( 59226 PWs)   bands (ev):

   -72.8907 -72.8839 -44.4336 -44.3639 -44.2911 -44.2843 -44.2691 -44.2623
   -21.3091 -20.5312 -20.3421 -20.3344 -19.9843 -19.9763 -19.8020 -18.7252
   -18.7177 -18.3725 -18.3619 -18.3515 -18.2676 -18.2550 -18.0741 -18.0670
   -12.5046 -12.4970 -12.4043 -11.5774 -11.5719 -11.4248 -11.4142 -10.9222
   -10.9196  -9.9259  -9.9219  -9.6717  -9.3731  -9.3660  -9.2270  -9.2237
    -9.0385  -9.0360  -8.9198  -8.3204  -8.3170  -7.8978  -7.8947  -7.8770
    -7.8408  -7.7662  -7.6067  -7.5779  -7.1326  -7.0881  -6.9551  -6.8838
    -6.8814  -6.8483  -6.5273  -6.5239  -6.2534  -5.3461  -5.3136  -5.1391
    -5.0613  -4.8070  -4.7929  -4.7464  -4.6194  -4.5958  -4.3506  -4.3280
    -2.8493  -2.0160  -1.9910  -1.8264  -1.6390  -1.6126  -1.5066  -1.4905
    -1.3982  -1.3876  -1.3456  -0.7512   0.8185   0.9016   0.9577   1.1928
     1.2570   1.3407   1.5836   1.5943   1.7035   1.9395

          k =-0.5000-0.8660 0.0000 ( 59292 PWs)   bands (ev):

   -72.8907 -72.8839 -44.4336 -44.3639 -44.2911 -44.2844 -44.2691 -44.2623
   -21.0473 -21.0406 -20.4663 -20.4591 -19.4249 -19.4142 -19.4113 -19.4027
   -18.9894 -18.9837 -18.3210 -18.3200 -18.3155 -18.3032 -17.7905 -17.7837
   -12.0674 -12.0630 -12.0619 -12.0521 -11.8743 -11.8687 -11.3263 -11.3225
   -10.2319 -10.2271 -10.1312 -10.1284 -10.1270 -10.1212  -8.5850  -8.5472
    -8.5437  -8.5409  -8.5402  -8.5333  -7.8600  -7.8590  -7.8552  -7.8540
    -7.8221  -7.8148  -7.7780  -7.7492  -7.4881  -7.4800  -6.6076  -6.6027
    -6.3598  -6.3218  -6.3045  -6.2922  -6.1880  -6.1814  -5.7078  -5.6938
    -5.5427  -5.5365  -4.7215  -4.7087  -4.7066  -4.6845  -3.8837  -3.8645
    -2.8297  -2.0134  -1.9887  -1.8212  -1.6366  -1.6122  -1.5098  -1.4953
    -1.4066  -1.3912  -1.3500  -0.8813   0.7991   1.0535   1.0880   1.1804
     1.3355   1.5751   1.5851   1.6068   1.6738   1.7629

          k =-0.1667 0.2887 0.0000 ( 59267 PWs)   bands (ev):

   -72.8907 -72.8839 -44.4336 -44.3639 -44.2911 -44.2844 -44.2691 -44.2623
   -21.2426 -20.6575 -20.6507 -20.1025 -20.0901 -19.5846 -19.5777 -19.0954
   -18.6935 -18.6866 -18.4556 -18.4444 -18.1906 -18.0819 -18.0740 -17.8456
   -12.4799 -12.2039 -12.1964 -11.8178 -11.8131 -11.6544 -11.1885 -11.1843
   -10.3879 -10.3639 -10.1143 -10.1107  -9.5853  -9.5838  -8.8354  -8.8208
    -8.8172  -8.7637  -8.7567  -8.5924  -8.1932  -8.0476  -8.0130  -7.8256
    -7.8222  -7.4343  -7.4333  -7.2800  -7.2542  -7.2047  -7.2015  -6.9588
    -6.9492  -6.5618  -6.5357  -6.1500  -6.1484  -5.8683  -5.4147  -5.2928
    -5.2704  -5.1959  -4.9128  -4.8928  -4.5030  -4.3532  -4.3370  -3.9759
    -2.8458  -2.0157  -1.9908  -1.8232  -1.6370  -1.6124  -1.5083  -1.4919
    -1.3990  -1.3870  -1.3466  -0.7553   0.6954   0.9104   1.0166   1.1768
     1.2881   1.4688   1.5197   1.5746   1.6072   1.7993

          k = 0.3333 0.0000 0.0000 ( 59267 PWs)   bands (ev):

   -72.8907 -72.8839 -44.4336 -44.3639 -44.2911 -44.2843 -44.2691 -44.2623
   -21.2423 -20.6801 -20.6279 -20.0989 -20.0924 -19.6076 -19.5564 -19.0971
   -18.7083 -18.6675 -18.4541 -18.4477 -18.1863 -18.1027 -18.0592 -17.8449
   -12.4798 -12.2010 -12.1989 -11.8244 -11.8085 -11.6524 -11.2053 -11.1683
   -10.3866 -10.3641 -10.1253 -10.0997  -9.5913  -9.5768  -8.8427  -8.8190
    -8.8105  -8.7819  -8.7386  -8.5934  -8.1946  -8.0973  -7.9629  -7.8241
    -7.8219  -7.4404  -7.4268  -7.2843  -7.2443  -7.2133  -7.1928  -6.9566
    -6.9523  -6.6147  -6.4908  -6.1525  -6.1451  -5.8745  -5.4142  -5.2991
    -5.2530  -5.1965  -4.9176  -4.8916  -4.4928  -4.3777  -4.3254  -3.9746
    -2.8376  -2.0142  -1.9893  -1.8242  -1.6385  -1.6125  -1.5075  -1.4929
    -1.4033  -1.3901  -1.3481  -0.8403   0.8635   0.9837   1.1376   1.2496
     1.2696   1.4447   1.5343   1.5577   1.6037   1.7910

          k =-0.1667-0.4811 0.0000 ( 59291 PWs)   bands (ev):

   -72.8907 -72.8839 -44.4336 -44.3639 -44.2911 -44.2844 -44.2691 -44.2623
   -21.1121 -20.9083 -20.7187 -20.1566 -19.8002 -19.4626 -19.3127 -19.1706
   -19.0104 -18.7750 -18.6361 -18.5407 -18.1442 -18.0862 -17.9181 -17.7198
   -12.3439 -12.1091 -12.0407 -11.9026 -11.6765 -11.6546 -11.5488 -10.9383
   -10.8860 -10.6197 -10.5194  -9.8561  -9.6893  -9.3323  -9.1070  -8.6638
    -8.6187  -8.5488  -8.3852  -8.3642  -8.1573  -8.1199  -8.0592  -8.0457
    -7.6839  -7.6193  -7.4899  -7.4700  -7.3530  -7.1669  -7.0638  -6.8568
    -6.6182  -6.3861  -6.1738  -6.1539  -5.9685  -5.9253  -5.7793  -5.7425
    -5.4474  -5.3948  -5.2058  -5.0383  -4.4406  -4.3445  -4.0854  -3.7632
    -2.8426  -2.0155  -1.9906  -1.8199  -1.6361  -1.6122  -1.5103  -1.4930
    -1.3998  -1.3866  -1.3477  -0.7590   0.6025   0.9037   1.0139   1.1079
     1.2302   1.2832   1.3841   1.8410   1.9191   2.1217

          k = 0.5000-0.0962 0.0000 ( 59291 PWs)   bands (ev):

   -72.8907 -72.8839 -44.4336 -44.3639 -44.2911 -44.2844 -44.2691 -44.2623
   -21.1096 -20.9152 -20.7142 -20.1549 -19.8005 -19.4641 -19.3182 -19.1661
   -19.0112 -18.7755 -18.6272 -18.5463 -18.1329 -18.1014 -17.9154 -17.7196
   -12.3432 -12.1094 -12.0389 -11.9062 -11.6876 -11.6413 -11.5510 -10.9384
   -10.8841 -10.6182 -10.5216  -9.8539  -9.6900  -9.3333  -9.1064  -8.6538
    -8.6191  -8.5471  -8.3956  -8.3876  -8.1554  -8.1004  -8.0710  -8.0351
    -7.6806  -7.6199  -7.4891  -7.4712  -7.3462  -7.1682  -7.0643  -6.8570
    -6.6183  -6.3955  -6.1906  -6.1532  -5.9539  -5.9244  -5.7788  -5.7437
    -5.4486  -5.3942  -5.1829  -5.0536  -4.4162  -4.3742  -4.0824  -3.7630
    -2.8299  -2.0134  -1.9887  -1.8213  -1.6371  -1.6123  -1.5098  -1.4952
    -1.4065  -1.3912  -1.3501  -0.8811   0.7875   1.0305   1.0792   1.1869
     1.2817   1.3448   1.4981   1.7483   1.8313   1.8985

          k =-0.3333-0.3849 0.0000 ( 59291 PWs)   bands (ev):

   -72.8907 -72.8839 -44.4336 -44.3639 -44.2911 -44.2844 -44.2691 -44.2623
   -21.1104 -20.9128 -20.7159 -20.1548 -19.8021 -19.4625 -19.3137 -19.1691
   -19.0138 -18.7740 -18.6285 -18.5455 -18.1352 -18.0986 -17.9155 -17.7197
   -12.3435 -12.1080 -12.0408 -11.9054 -11.6773 -11.6525 -11.5500 -10.9383
   -10.8837 -10.6175 -10.5225  -9.8548  -9.6901  -9.3325  -9.1070  -8.6568
    -8.6181  -8.5492  -8.3864  -8.3833  -8.1571  -8.1077  -8.0592  -8.0476
    -7.6810  -7.6182  -7.4956  -7.4655  -7.3452  -7.1684  -7.0648  -6.8648
    -6.6165  -6.3865  -6.1750  -6.1552  -5.9666  -5.9235  -5.7791  -5.7533
    -5.4483  -5.3894  -5.1827  -5.0538  -4.4199  -4.3710  -4.0815  -3.7633
    -2.8341  -2.0142  -1.9895  -1.8208  -1.6364  -1.6122  -1.5102  -1.4944
    -1.4043  -1.3896  -1.3492  -0.8439   0.7191   1.0288   1.0868   1.1421
     1.2011   1.3714   1.4022   1.7999   1.9056   1.9229

          k = 0.5000 0.0962 0.0000 ( 59291 PWs)   bands (ev):

   -72.8907 -72.8839 -44.4336 -44.3639 -44.2911 -44.2844 -44.2691 -44.2623
   -21.1096 -20.9152 -20.7142 -20.1549 -19.8005 -19.4641 -19.3182 -19.1661
   -19.0112 -18.7755 -18.6272 -18.5463 -18.1329 -18.1014 -17.9154 -17.7196
   -12.3432 -12.1094 -12.0389 -11.9062 -11.6876 -11.6413 -11.5510 -10.9384
   -10.8841 -10.6182 -10.5216  -9.8539  -9.6900  -9.3333  -9.1064  -8.6538
    -8.6191  -8.5472  -8.3956  -8.3876  -8.1554  -8.1004  -8.0709  -8.0351
    -7.6806  -7.6198  -7.4891  -7.4712  -7.3462  -7.1683  -7.0643  -6.8570
    -6.6183  -6.3955  -6.1906  -6.1531  -5.9540  -5.9243  -5.7788  -5.7437
    -5.4486  -5.3942  -5.1829  -5.0535  -4.4161  -4.3742  -4.0824  -3.7630
    -2.8299  -2.0134  -1.9887  -1.8213  -1.6371  -1.6123  -1.5098  -1.4952
    -1.4065  -1.3912  -1.3501  -0.8811   0.7875   1.0305   1.0792   1.1870
     1.2816   1.3448   1.4980   1.7483   1.8313   1.8985

          k =-0.3333 0.3849 0.0000 ( 59291 PWs)   bands (ev):

   -72.8907 -72.8839 -44.4336 -44.3639 -44.2911 -44.2844 -44.2691 -44.2623
   -21.1104 -20.9128 -20.7159 -20.1548 -19.8021 -19.4625 -19.3137 -19.1691
   -19.0138 -18.7740 -18.6285 -18.5455 -18.1352 -18.0987 -17.9155 -17.7197
   -12.3435 -12.1080 -12.0408 -11.9054 -11.6773 -11.6525 -11.5500 -10.9383
   -10.8837 -10.6175 -10.5225  -9.8549  -9.6900  -9.3325  -9.1070  -8.6568
    -8.6182  -8.5492  -8.3864  -8.3833  -8.1571  -8.1077  -8.0592  -8.0475
    -7.6809  -7.6182  -7.4956  -7.4654  -7.3452  -7.1683  -7.0648  -6.8648
    -6.6166  -6.3865  -6.1750  -6.1552  -5.9665  -5.9236  -5.7791  -5.7533
    -5.4482  -5.3894  -5.1827  -5.0538  -4.4199  -4.3710  -4.0815  -3.7632
    -2.8341  -2.0142  -1.9895  -1.8208  -1.6364  -1.6122  -1.5102  -1.4944
    -1.4043  -1.3896  -1.3492  -0.8439   0.7191   1.0288   1.0868   1.1421
     1.2011   1.3714   1.4022   1.7998   1.9056   1.9228

          k =-0.1667-0.0962 0.0000 ( 59226 PWs)   bands (ev):

   -72.8907 -72.8839 -44.4336 -44.3639 -44.2911 -44.2843 -44.2691 -44.2623
   -21.3091 -20.5312 -20.3422 -20.3344 -19.9843 -19.9763 -19.8020 -18.7252
   -18.7177 -18.3725 -18.3620 -18.3515 -18.2676 -18.2550 -18.0741 -18.0669
   -12.5046 -12.4970 -12.4042 -11.5774 -11.5719 -11.4248 -11.4143 -10.9222
   -10.9196  -9.9259  -9.9219  -9.6717  -9.3730  -9.3660  -9.2270  -9.2238
    -9.0385  -9.0360  -8.9198  -8.3204  -8.3170  -7.8978  -7.8946  -7.8770
    -7.8407  -7.7663  -7.6067  -7.5779  -7.1326  -7.0881  -6.9551  -6.8838
    -6.8813  -6.8483  -6.5273  -6.5238  -6.2535  -5.3461  -5.3136  -5.1390
    -5.0614  -4.8069  -4.7929  -4.7464  -4.6193  -4.5958  -4.3506  -4.3280
    -2.8493  -2.0160  -1.9910  -1.8264  -1.6390  -1.6126  -1.5066  -1.4905
    -1.3982  -1.3876  -1.3456  -0.7512   0.8185   0.9016   0.9577   1.1928
     1.2570   1.3407   1.5836   1.5944   1.7035   1.9398

          k =-0.0000-0.1925 0.0000 ( 59226 PWs)   bands (ev):

   -72.8907 -72.8839 -44.4336 -44.3639 -44.2911 -44.2844 -44.2691 -44.2623
   -21.3092 -20.5266 -20.3511 -20.3334 -19.9843 -19.9695 -19.8053 -18.7276
   -18.7121 -18.3819 -18.3753 -18.3472 -18.2521 -18.2505 -18.0802 -18.0656
   -12.5017 -12.5003 -12.4040 -11.5816 -11.5695 -11.4195 -11.4163 -10.9240
   -10.9196  -9.9265  -9.9210  -9.6723  -9.3723  -9.3660  -9.2267  -9.2241
    -9.0378  -9.0373  -8.9204  -8.3205  -8.3157  -7.8964  -7.8952  -7.8597
    -7.8391  -7.7677  -7.6308  -7.5882  -7.1109  -7.0824  -6.9537  -6.8866
    -6.8801  -6.8603  -6.5290  -6.5217  -6.2539  -5.3411  -5.3100  -5.1395
    -5.0608  -4.8386  -4.8002  -4.7453  -4.5917  -4.5849  -4.3566  -4.3314
    -2.8533  -2.0168  -1.9917  -1.8259  -1.6382  -1.6126  -1.5070  -1.4902
    -1.3962  -1.3860  -1.3449  -0.7016   0.6915   0.8467   0.9622   1.1609
     1.2458   1.3738   1.5687   1.6000   1.7198   1.9659

          k = 0.5000-0.8660 0.0000 ( 59292 PWs)   bands (ev):

   -72.8907 -72.8839 -44.4336 -44.3639 -44.2911 -44.2844 -44.2691 -44.2623
   -21.0473 -21.0406 -20.4664 -20.4591 -19.4249 -19.4142 -19.4113 -19.4027
   -18.9895 -18.9836 -18.3209 -18.3200 -18.3157 -18.3031 -17.7905 -17.7837
   -12.0674 -12.0630 -12.0620 -12.0520 -11.8743 -11.8687 -11.3263 -11.3224
   -10.2319 -10.2271 -10.1312 -10.1284 -10.1270 -10.1212  -8.5850  -8.5472
    -8.5437  -8.5408  -8.5402  -8.5331  -7.8600  -7.8590  -7.8552  -7.8540
    -7.8222  -7.8148  -7.7780  -7.7492  -7.4882  -7.4801  -6.6075  -6.6027
    -6.3598  -6.3218  -6.3044  -6.2922  -6.1881  -6.1812  -5.7078  -5.6939
    -5.5429  -5.5366  -4.7215  -4.7087  -4.7065  -4.6846  -3.8838  -3.8645
    -2.8297  -2.0134  -1.9887  -1.8212  -1.6366  -1.6122  -1.5098  -1.4953
    -1.4066  -1.3912  -1.3500  -0.8813   0.7991   1.0535   1.0880   1.1804
     1.3355   1.5750   1.5850   1.6069   1.6738   1.7629

          k =-1.0000 0.0000 0.0000 ( 59292 PWs)   bands (ev):

   -72.8907 -72.8839 -44.4336 -44.3639 -44.2911 -44.2844 -44.2691 -44.2623
   -21.0689 -21.0165 -20.4734 -20.4563 -19.4225 -19.4168 -19.4126 -19.3957
   -19.0077 -18.9672 -18.3563 -18.3403 -18.2833 -18.2802 -17.7951 -17.7806
   -12.0912 -12.0821 -12.0368 -12.0306 -11.8794 -11.8645 -11.3456 -11.3053
   -10.2419 -10.2299 -10.1303 -10.1288 -10.1197 -10.1176  -8.6266  -8.5657
    -8.5581  -8.5186  -8.5182  -8.4887  -7.8697  -7.8684  -7.8546  -7.8512
    -7.8144  -7.8111  -7.7873  -7.7540  -7.5076  -7.4624  -6.6091  -6.5996
    -6.3484  -6.3201  -6.3115  -6.2781  -6.2032  -6.1690  -5.7279  -5.6813
    -5.5605  -5.5188  -4.7986  -4.7371  -4.6510  -4.6381  -3.8874  -3.8622
    -2.8468  -2.0160  -1.9910  -1.8195  -1.6360  -1.6121  -1.5100  -1.4924
    -1.3976  -1.3851  -1.3469  -0.7102   0.5580   0.7898   1.0079   1.1023
     1.2435   1.4620   1.5925   1.6206   1.6434   1.9456

 ------ SPIN DOWN ----------


          k = 0.1667 0.2887 0.0000 ( 59267 PWs)   bands (ev):

   -68.6897 -68.6819 -40.3570 -40.2740 -40.1101 -40.1019 -40.0677 -40.0595
   -21.2386 -20.6545 -20.6457 -20.0982 -20.0864 -19.5818 -19.5725 -19.0913
   -18.6899 -18.6811 -18.4512 -18.4405 -18.1856 -18.0784 -18.0698 -17.8412
   -12.4773 -12.2008 -12.1938 -11.8152 -11.8107 -11.6521 -11.1863 -11.1809
   -10.3849 -10.3610 -10.1116 -10.1072  -9.5828  -9.5808  -8.8219  -8.8144
    -8.8107  -8.7618  -8.7532  -8.5899  -8.1907  -8.0223  -8.0035  -7.8230
    -7.8197  -7.4309  -7.4298  -7.2599  -7.2403  -7.2026  -7.1986  -6.9561
    -6.9467  -6.5394  -6.5275  -6.1473  -6.1457  -5.8516  -5.4114  -5.2692
    -5.2577  -5.1933  -4.8973  -4.8801  -4.4853  -4.3383  -4.3267  -3.9616
    -1.4376   0.3707   0.9277   1.0413   1.1099   1.1520   1.2561   1.3526
     1.3931   1.4983   1.5348   1.5977   1.6295   1.7149   1.9086   1.9406
     2.0317   2.0810   2.1551   2.1887   2.2740   2.2995

          k = 0.1667-0.4811 0.0000 ( 59291 PWs)   bands (ev):

   -68.6897 -68.6819 -40.3571 -40.2740 -40.1101 -40.1019 -40.0677 -40.0595
   -21.1077 -20.9050 -20.7145 -20.1524 -19.7962 -19.4586 -19.3088 -19.1662
   -19.0063 -18.7710 -18.6305 -18.5373 -18.1382 -18.0839 -17.9136 -17.7154
   -12.3413 -12.1064 -12.0382 -11.9002 -11.6746 -11.6515 -11.5462 -10.9353
   -10.8829 -10.6165 -10.5168  -9.8529  -9.6866  -9.3292  -9.1042  -8.6400
    -8.6161  -8.5457  -8.3828  -8.3519  -8.1547  -8.1021  -8.0570  -8.0429
    -7.6810  -7.6166  -7.4874  -7.4676  -7.3346  -7.1638  -7.0613  -6.8406
    -6.6147  -6.3700  -6.1572  -6.1512  -5.9529  -5.9219  -5.7766  -5.7264
    -5.4447  -5.3794  -5.1824  -5.0288  -4.4190  -4.3381  -4.0712  -3.7495
    -1.4279   0.3587   0.9380   0.9847   1.0484   1.0952   1.2084   1.2440
     1.3609   1.4260   1.5379   1.7378   1.7960   1.8315   1.8792   2.0751
     2.1088   2.1333   2.1523   2.2120   2.2830   2.3018

          k = 0.1667-0.0962 0.0000 ( 59226 PWs)   bands (ev):

   -68.6897 -68.6819 -40.3570 -40.2740 -40.1101 -40.1019 -40.0677 -40.0594
   -21.3051 -20.5267 -20.3381 -20.3312 -19.9794 -19.9727 -19.7984 -18.7200
   -18.7138 -18.3676 -18.3582 -18.3475 -18.2628 -18.2505 -18.0698 -18.0636
   -12.5017 -12.4946 -12.4016 -11.5746 -11.5699 -11.4218 -11.4117 -10.9192
   -10.9171  -9.9229  -9.9193  -9.6686  -9.3702  -9.3633  -9.2234  -9.2209
    -9.0357  -9.0335  -8.9009  -8.3168  -8.3139  -7.8950  -7.8918  -7.8549
    -7.8366  -7.7639  -7.5894  -7.5676  -7.1060  -7.0773  -6.9524  -6.8811
    -6.8791  -6.8374  -6.5245  -6.5215  -6.2508  -5.3220  -5.3013  -5.1362
    -5.0584  -4.7894  -4.7751  -4.7341  -4.6030  -4.5837  -4.3338  -4.3183
    -1.4473   0.3850   0.9323   1.0449   1.0812   1.1265   1.1637   1.3092
     1.4804   1.5493   1.5968   1.6329   1.7694   1.8778   1.8899   1.9183
     1.9654   2.0281   2.1074   2.1659   2.2395   2.2948

          k =-0.5000-0.8660 0.0000 ( 59292 PWs)   bands (ev):

   -68.6897 -68.6819 -40.3571 -40.2740 -40.1101 -40.1020 -40.0677 -40.0595
   -21.0445 -21.0352 -20.4621 -20.4558 -19.4190 -19.4109 -19.4072 -19.3991
   -18.9867 -18.9784 -18.3169 -18.3150 -18.3143 -18.2962 -17.7858 -17.7799
   -12.0640 -12.0608 -12.0604 -12.0483 -11.8716 -11.8668 -11.3242 -11.3190
   -10.2287 -10.2247 -10.1277 -10.1251 -10.1240 -10.1189  -8.5553  -8.5426
    -8.5417  -8.5375  -8.5335  -8.5294  -7.8571  -7.8561  -7.8526  -7.8519
    -7.8173  -7.8114  -7.7602  -7.7386  -7.4866  -7.4768  -6.6045  -6.6003
    -6.3281  -6.3021  -6.2944  -6.2821  -6.1856  -6.1778  -5.6898  -5.6834
    -5.5410  -5.5327  -4.7021  -4.6950  -4.6823  -4.6815  -3.8671  -3.8536
    -1.4035   0.1186   0.9542   0.9996   1.1212   1.1486   1.2274   1.3728
     1.5163   1.5458   1.5774   1.7050   1.7394   1.8702   1.9087   1.9548
     1.9731   2.0418   2.1696   2.2128   2.3027   2.3095

          k =-0.1667 0.2887 0.0000 ( 59267 PWs)   bands (ev):

   -68.6897 -68.6819 -40.3570 -40.2740 -40.1101 -40.1019 -40.0677 -40.0595
   -21.2386 -20.6546 -20.6456 -20.0981 -20.0864 -19.5819 -19.5724 -19.0913
   -18.6900 -18.6810 -18.4512 -18.4405 -18.1856 -18.0785 -18.0697 -17.8412
   -12.4773 -12.2008 -12.1938 -11.8152 -11.8107 -11.6521 -11.1864 -11.1808
   -10.3849 -10.3610 -10.1117 -10.1072  -9.5829  -9.5807  -8.8218  -8.8144
    -8.8107  -8.7619  -8.7532  -8.5898  -8.1907  -8.0223  -8.0035  -7.8230
    -7.8197  -7.4309  -7.4299  -7.2599  -7.2403  -7.2026  -7.1985  -6.9561
    -6.9468  -6.5393  -6.5276  -6.1473  -6.1456  -5.8516  -5.4115  -5.2692
    -5.2577  -5.1932  -4.8973  -4.8801  -4.4853  -4.3383  -4.3267  -3.9616
    -1.4376   0.3707   0.9277   1.0414   1.1099   1.1520   1.2561   1.3526
     1.3931   1.4983   1.5347   1.5977   1.6295   1.7149   1.9086   1.9406
     2.0316   2.0809   2.1552   2.1886   2.2740   2.2995

          k = 0.3333 0.0000 0.0000 ( 59267 PWs)   bands (ev):

   -68.6897 -68.6819 -40.3571 -40.2740 -40.1101 -40.1019 -40.0677 -40.0595
   -21.2383 -20.6741 -20.6260 -20.0950 -20.0884 -19.6013 -19.5544 -19.0927
   -18.7020 -18.6657 -18.4494 -18.4436 -18.1822 -18.0956 -18.0573 -17.8407
   -12.4772 -12.1985 -12.1959 -11.8217 -11.8060 -11.6504 -11.2013 -11.1666
   -10.3838 -10.3612 -10.1212 -10.0978  -9.5880  -9.5748  -8.8275  -8.8157
    -8.8028  -8.7781  -8.7373  -8.5907  -8.1919  -8.0668  -7.9589  -7.8217
    -7.8196  -7.4360  -7.4244  -7.2623  -7.2341  -7.2100  -7.1912  -6.9539
    -6.9497  -6.5856  -6.4865  -6.1495  -6.1428  -5.8558  -5.4111  -5.2803
    -5.2393  -5.1937  -4.8991  -4.8805  -4.4786  -4.3593  -4.3141  -3.9609
    -1.4222   0.2000   0.9918   1.0338   1.1286   1.1576   1.1761   1.4038
     1.4757   1.5113   1.5457   1.6757   1.7804   1.8489   1.8900   1.9286
     2.0021   2.0613   2.1209   2.1647   2.2808   2.3557

          k =-0.1667-0.4811 0.0000 ( 59291 PWs)   bands (ev):

   -68.6897 -68.6819 -40.3571 -40.2740 -40.1101 -40.1019 -40.0677 -40.0595
   -21.1077 -20.9050 -20.7145 -20.1524 -19.7962 -19.4586 -19.3088 -19.1662
   -19.0063 -18.7710 -18.6305 -18.5373 -18.1382 -18.0839 -17.9136 -17.7154
   -12.3413 -12.1064 -12.0382 -11.9001 -11.6746 -11.6515 -11.5462 -10.9353
   -10.8829 -10.6165 -10.5168  -9.8529  -9.6866  -9.3292  -9.1043  -8.6400
    -8.6160  -8.5457  -8.3828  -8.3519  -8.1547  -8.1021  -8.0570  -8.0430
    -7.6810  -7.6167  -7.4874  -7.4676  -7.3346  -7.1637  -7.0613  -6.8406
    -6.6148  -6.3701  -6.1572  -6.1512  -5.9529  -5.9219  -5.7765  -5.7264
    -5.4447  -5.3794  -5.1824  -5.0288  -4.4190  -4.3381  -4.0712  -3.7495
    -1.4279   0.3587   0.9380   0.9847   1.0483   1.0952   1.2084   1.2441
     1.3609   1.4260   1.5379   1.7378   1.7961   1.8315   1.8792   2.0752
     2.1088   2.1333   2.1522   2.2118   2.2830   2.3017

          k = 0.5000-0.0962 0.0000 ( 59291 PWs)   bands (ev):

   -68.6897 -68.6819 -40.3571 -40.2740 -40.1101 -40.1019 -40.0677 -40.0595
   -21.1056 -20.9107 -20.7108 -20.1510 -19.7965 -19.4598 -19.3133 -19.1626
   -19.0070 -18.7713 -18.6234 -18.5419 -18.1291 -18.0960 -17.9115 -17.7152
   -12.3406 -12.1067 -12.0365 -11.9033 -11.6845 -11.6396 -11.5481 -10.9355
   -10.8812 -10.6152 -10.5187  -9.8510  -9.6872  -9.3300  -9.1038  -8.6330
    -8.6163  -8.5443  -8.3859  -8.3728  -8.1531  -8.0887  -8.0673  -8.0337
    -7.6782  -7.6172  -7.4866  -7.4686  -7.3300  -7.1649  -7.0617  -6.8408
    -6.6149  -6.3753  -6.1694  -6.1507  -5.9431  -5.9212  -5.7761  -5.7274
    -5.4458  -5.3791  -5.1667  -5.0393  -4.4013  -4.3593  -4.0689  -3.7494
    -1.4036   0.1203   0.9504   1.0085   1.0782   1.1274   1.1910   1.2558
     1.3828   1.6065   1.6908   1.7654   1.8449   1.9100   1.9484   1.9889
     2.0247   2.1042   2.1877   2.2548   2.2832   2.3475

          k =-0.3333-0.3849 0.0000 ( 59291 PWs)   bands (ev):

   -68.6897 -68.6819 -40.3570 -40.2740 -40.1101 -40.1019 -40.0677 -40.0595
   -21.1063 -20.9087 -20.7122 -20.1509 -19.7978 -19.4585 -19.3097 -19.1650
   -19.0091 -18.7701 -18.6244 -18.5413 -18.1308 -18.0940 -17.9116 -17.7153
   -12.3409 -12.1054 -12.0383 -11.9026 -11.6753 -11.6497 -11.5472 -10.9354
   -10.8810 -10.6146 -10.5195  -9.8517  -9.6873  -9.3294  -9.1043  -8.6350
    -8.6155  -8.5459  -8.3837  -8.3652  -8.1545  -8.0938  -8.0570  -8.0445
    -7.6786  -7.6157  -7.4923  -7.4637  -7.3294  -7.1651  -7.0621  -6.8458
    -6.6134  -6.3702  -6.1584  -6.1521  -5.9510  -5.9205  -5.7764  -5.7341
    -5.4455  -5.3759  -5.1670  -5.0392  -4.4037  -4.3571  -4.0685  -3.7495
    -1.4119   0.1873   0.9455   0.9818   1.0804   1.1167   1.2365   1.2661
     1.3485   1.5237   1.6766   1.7633   1.8364   1.9071   1.9298   1.9941
     2.0572   2.0714   2.1364   2.2242   2.2976   2.3211

          k = 0.5000 0.0962 0.0000 ( 59291 PWs)   bands (ev):

   -68.6897 -68.6819 -40.3571 -40.2740 -40.1101 -40.1019 -40.0677 -40.0595
   -21.1056 -20.9107 -20.7108 -20.1510 -19.7965 -19.4598 -19.3133 -19.1626
   -19.0070 -18.7713 -18.6234 -18.5419 -18.1291 -18.0960 -17.9115 -17.7152
   -12.3406 -12.1067 -12.0365 -11.9033 -11.6845 -11.6396 -11.5481 -10.9355
   -10.8812 -10.6152 -10.5187  -9.8510  -9.6873  -9.3300  -9.1038  -8.6330
    -8.6163  -8.5443  -8.3858  -8.3728  -8.1531  -8.0887  -8.0673  -8.0337
    -7.6783  -7.6172  -7.4867  -7.4687  -7.3300  -7.1650  -7.0616  -6.8408
    -6.6148  -6.3753  -6.1694  -6.1506  -5.9431  -5.9211  -5.7761  -5.7274
    -5.4458  -5.3791  -5.1667  -5.0393  -4.4013  -4.3593  -4.0690  -3.7494
    -1.4036   0.1203   0.9504   1.0085   1.0782   1.1274   1.1910   1.2558
     1.3828   1.6065   1.6908   1.7654   1.8449   1.9100   1.9485   1.9889
     2.0248   2.1042   2.1876   2.2550   2.2831   2.3472

          k =-0.3333 0.3849 0.0000 ( 59291 PWs)   bands (ev):

   -68.6897 -68.6819 -40.3570 -40.2740 -40.1101 -40.1019 -40.0677 -40.0595
   -21.1063 -20.9087 -20.7122 -20.1509 -19.7978 -19.4585 -19.3097 -19.1650
   -19.0091 -18.7701 -18.6244 -18.5413 -18.1308 -18.0940 -17.9116 -17.7153
   -12.3409 -12.1054 -12.0383 -11.9026 -11.6754 -11.6497 -11.5472 -10.9354
   -10.8809 -10.6146 -10.5195  -9.8517  -9.6873  -9.3294  -9.1043  -8.6350
    -8.6155  -8.5458  -8.3838  -8.3652  -8.1546  -8.0938  -8.0571  -8.0445
    -7.6785  -7.6157  -7.4923  -7.4637  -7.3294  -7.1650  -7.0621  -6.8458
    -6.6134  -6.3702  -6.1584  -6.1522  -5.9510  -5.9206  -5.7763  -5.7341
    -5.4454  -5.3759  -5.1670  -5.0392  -4.4038  -4.3571  -4.0685  -3.7495
    -1.4119   0.1873   0.9455   0.9818   1.0804   1.1167   1.2365   1.2660
     1.3485   1.5237   1.6766   1.7633   1.8364   1.9071   1.9298   1.9939
     2.0572   2.0715   2.1365   2.2240   2.2975   2.3210

          k =-0.1667-0.0962 0.0000 ( 59226 PWs)   bands (ev):

   -68.6897 -68.6819 -40.3570 -40.2740 -40.1101 -40.1019 -40.0677 -40.0594
   -21.3051 -20.5267 -20.3381 -20.3312 -19.9794 -19.9727 -19.7984 -18.7200
   -18.7138 -18.3676 -18.3583 -18.3474 -18.2628 -18.2506 -18.0699 -18.0636
   -12.5017 -12.4946 -12.4016 -11.5746 -11.5698 -11.4217 -11.4118 -10.9192
   -10.9171  -9.9229  -9.9193  -9.6686  -9.3701  -9.3633  -9.2234  -9.2209
    -9.0357  -9.0335  -8.9009  -8.3168  -8.3139  -7.8950  -7.8917  -7.8549
    -7.8365  -7.7639  -7.5894  -7.5676  -7.1061  -7.0773  -6.9524  -6.8811
    -6.8790  -6.8374  -6.5244  -6.5214  -6.2509  -5.3220  -5.3013  -5.1361
    -5.0585  -4.7894  -4.7751  -4.7341  -4.6029  -4.5837  -4.3338  -4.3183
    -1.4473   0.3850   0.9323   1.0449   1.0812   1.1265   1.1636   1.3093
     1.4805   1.5493   1.5968   1.6329   1.7693   1.8777   1.8899   1.9182
     1.9654   2.0281   2.1074   2.1658   2.2392   2.2948

          k =-0.0000-0.1925 0.0000 ( 59226 PWs)   bands (ev):

   -68.6897 -68.6819 -40.3570 -40.2740 -40.1101 -40.1019 -40.0677 -40.0595
   -21.3052 -20.5229 -20.3463 -20.3295 -19.9802 -19.9662 -19.8012 -18.7229
   -18.7084 -18.3753 -18.3695 -18.3434 -18.2496 -18.2478 -18.0757 -18.0615
   -12.4992 -12.4974 -12.4013 -11.5787 -11.5672 -11.4172 -11.4137 -10.9210
   -10.9168  -9.9236  -9.9184  -9.6691  -9.3693  -9.3635  -9.2235  -9.2209
    -9.0351  -9.0345  -8.9013  -8.3173  -8.3125  -7.8939  -7.8927  -7.8453
    -7.8326  -7.7650  -7.6063  -7.5740  -7.0947  -7.0699  -6.9512  -6.8838
    -6.8777  -6.8459  -6.5262  -6.5193  -6.2512  -5.3214  -5.2960  -5.1365
    -5.0580  -4.8093  -4.7832  -4.7318  -4.5834  -4.5773  -4.3404  -4.3178
    -1.4546   0.5164   0.8908   1.0116   1.0770   1.1342   1.2013   1.2561
     1.4363   1.5182   1.5264   1.5928   1.7330   1.8577   1.8614   1.9211
     2.0515   2.0600   2.1396   2.1418   2.1977   2.2880

          k = 0.5000-0.8660 0.0000 ( 59292 PWs)   bands (ev):

   -68.6897 -68.6819 -40.3571 -40.2740 -40.1101 -40.1020 -40.0677 -40.0595
   -21.0446 -21.0351 -20.4621 -20.4558 -19.4190 -19.4108 -19.4072 -19.3991
   -18.9868 -18.9783 -18.3169 -18.3149 -18.3144 -18.2961 -17.7858 -17.7799
   -12.0640 -12.0609 -12.0604 -12.0482 -11.8716 -11.8668 -11.3242 -11.3189
   -10.2288 -10.2247 -10.1277 -10.1251 -10.1240 -10.1189  -8.5553  -8.5427
    -8.5418  -8.5374  -8.5335  -8.5293  -7.8571  -7.8561  -7.8525  -7.8519
    -7.8173  -7.8114  -7.7602  -7.7386  -7.4867  -7.4768  -6.6044  -6.6002
    -6.3281  -6.3021  -6.2943  -6.2821  -6.1856  -6.1777  -5.6898  -5.6834
    -5.5412  -5.5328  -4.7021  -4.6949  -4.6822  -4.6816  -3.8671  -3.8536
    -1.4035   0.1186   0.9542   0.9996   1.1212   1.1486   1.2274   1.3729
     1.5162   1.5458   1.5773   1.7050   1.7394   1.8702   1.9088   1.9547
     1.9732   2.0418   2.1696   2.2128   2.3031   2.3095

          k =-1.0000 0.0000 0.0000 ( 59292 PWs)   bands (ev):

   -68.6897 -68.6819 -40.3571 -40.2740 -40.1101 -40.1019 -40.0677 -40.0594
   -21.0630 -21.0146 -20.4688 -20.4526 -19.4180 -19.4124 -19.4086 -19.3926
   -19.0013 -18.9653 -18.3480 -18.3332 -18.2822 -18.2793 -17.7903 -17.7765
   -12.0875 -12.0775 -12.0357 -12.0295 -11.8767 -11.8625 -11.3414 -11.3036
   -10.2379 -10.2267 -10.1271 -10.1258 -10.1171 -10.1155  -8.5949  -8.5616
    -8.5542  -8.5176  -8.5168  -8.4848  -7.8664  -7.8649  -7.8519  -7.8486
    -7.8085  -7.8074  -7.7693  -7.7406  -7.5036  -7.4612  -6.6062  -6.5972
    -6.3234  -6.3014  -6.2989  -6.2693  -6.1989  -6.1669  -5.7096  -5.6684
    -5.5560  -5.5177  -4.7629  -4.7164  -4.6478  -4.6363  -3.8719  -3.8499
    -1.4356   0.4797   0.9371   1.0223   1.0423   1.0759   1.2424   1.2583
     1.3426   1.3585   1.6247   1.6401   1.6754   1.8161   1.8234   1.8455
     2.1204   2.1475   2.1507   2.1836   2.2893   2.2951

     the Fermi energy is    -1.1715 ev

!    total energy              =   -1133.82727398 Ry

     total all-electron energy =     -6753.502977 Ry
     estimated scf accuracy    <       0.00000007 Ry
     smearing contrib. (-TS)   =      -0.00000000 Ry
     internal energy E=F+TS    =   -1133.82727398 Ry

     The total energy is F=E-TS. E is the sum of the following terms:
     one-electron contribution =   -3951.26520212 Ry
     hartree contribution      =    2003.83490468 Ry
     xc contribution           =    -186.01895351 Ry
     ewald contribution        =    1358.99851496 Ry
     DFT-D3 Dispersion         =      -0.13430618 Ry
     one-center paw contrib.   =    -359.24223181 Ry

     total magnetization       =    10.00 Bohr mag/cell
     absolute magnetization    =    10.01 Bohr mag/cell

     convergence has been achieved in  14 iterations

     Writing output data file ./mytmp/Crdimer0.1435-0.2.save/
 
     init_run     :     18.60s CPU     19.69s WALL (       1 calls)
     electrons    :    538.97s CPU    583.76s WALL (       1 calls)

     Called by init_run:
     wfcinit      :     13.63s CPU     14.12s WALL (       1 calls)
     potinit      :      1.52s CPU      1.61s WALL (       1 calls)
     hinit0       :      1.52s CPU      1.60s WALL (       1 calls)

     Called by electrons:
     c_bands      :    423.62s CPU    449.50s WALL (      14 calls)
     sum_band     :     81.55s CPU     92.72s WALL (      14 calls)
     v_of_rho     :      7.51s CPU      8.36s WALL (      15 calls)
     newd         :     18.35s CPU     25.25s WALL (      15 calls)
     PAW_pot      :      7.42s CPU      7.55s WALL (      15 calls)
     mix_rho      :      0.99s CPU      1.11s WALL (      14 calls)

     Called by c_bands:
     init_us_2    :      5.05s CPU      5.08s WALL (     870 calls)
     cegterg      :    411.25s CPU    437.07s WALL (     420 calls)

     Called by *egterg:
     cdiaghg      :     25.62s CPU     40.43s WALL (    2744 calls)
     h_psi        :    246.82s CPU    256.23s WALL (    2774 calls)
     s_psi        :     27.22s CPU     27.27s WALL (    2774 calls)
     g_psi        :      0.68s CPU      0.70s WALL (    2324 calls)

     Called by h_psi:
     h_psi:calbec :     29.46s CPU     30.12s WALL (    2774 calls)
     vloc_psi     :    187.17s CPU    195.76s WALL (    2774 calls)
     add_vuspsi   :     27.72s CPU     27.85s WALL (    2774 calls)

     General routines
     calbec       :     39.21s CPU     40.06s WALL (    3194 calls)
     fft          :      9.29s CPU     13.95s WALL (     369 calls)
     ffts         :      0.12s CPU      0.14s WALL (      58 calls)
     fftw         :    192.33s CPU    201.12s WALL (  251740 calls)
     interpolate  :      0.42s CPU      0.48s WALL (      30 calls)
 
     Parallel routines
     fft_scatt_xy :     31.32s CPU     32.49s WALL (  252167 calls)
     fft_scatt_yz :     80.01s CPU     88.89s WALL (  252167 calls)
 
     PWSCF        :   9m19.62s CPU  10m 8.14s WALL

 
   This run was terminated on:  16:14:14   2Apr2021            

=------------------------------------------------------------------------------=
   JOB DONE.
=------------------------------------------------------------------------------=
