
     Program PWSCF v.6.7MaX starts on  2Apr2021 at 15:44: 9 

     This program is part of the open-source Quantum ESPRESSO suite
     for quantum simulation of materials; please cite
         "P. Giannozzi et al., J. Phys.:Condens. Matter 21 395502 (2009);
         "P. Giannozzi et al., J. Phys.:Condens. Matter 29 465901 (2017);
          URL http://www.quantum-espresso.org", 
     in publications or presentations arising from this work. More details at
     http://www.quantum-espresso.org/quote

     Parallel version (MPI), running on    48 processors

     MPI processes distributed on     1 nodes
     R & G space division:  proc/nbgrp/npool/nimage =      48
     Reading input from Crdimer0.1435-0.0.scf.in

     Current dimensions of program PWSCF are:
     Max number of different atomic species (ntypx) = 10
     Max number of k-points (npk) =  40000
     Max angular momentum in pseudopotentials (lmaxx) =  3
     file N.pbe-n-kjpaw_psl.1.0.0.UPF: wavefunction(s)  2S renormalized
     file Cr.pbe-spn-kjpaw_psl.1.0.0.UPF: wavefunction(s)  3S 3P 3D renormalized
     file Cr.pbe-spn-kjpaw_psl.1.0.0.UPF: wavefunction(s)  3S 3P 3D renormalized

     --------------------------------------------
     Parameters for DFT-D3 Dispersion Correction:
     --------------------------------------------
       Reference C6 values for interpolation: 

         atom   Coordination number   C6
         B          0.000           214.36
         B          0.971           150.74
         B          1.944           106.23
         B          2.913            62.89
         B          4.586            56.06
         N          0.000            50.54
         N          0.994            44.25
         N          2.014            39.35
         N          2.990            31.16
         Cr1        0.000          1381.48
         Cr1        1.827           571.38
         Cr1       10.619           306.69
         Cr2        0.000          1381.48
         Cr2        1.827           571.38
         Cr2       10.619           306.69

       Values used:

         atom   Coordination number  R0_AB[au]  C6      C8
         B          3.336            3.039     62.89   2505.99
         B          3.336            3.039     62.89   2505.99
         B          3.364            3.039     62.87   2505.23
         B          3.336            3.039     62.89   2505.99
         B          3.340            3.039     62.89   2505.89
         B          3.340            3.039     62.89   2505.89
         N          3.134            2.478     31.22    688.70
         N          3.134            2.478     31.22    688.70
         N          3.158            2.478     31.21    688.49
         N          3.136            2.478     31.22    688.68
         N          3.135            2.478     31.22    688.69
         N          3.134            2.478     31.22    688.69
         N          3.135            2.478     31.22    688.69
         N          3.134            2.478     31.22    688.69
         N          3.142            2.478     31.21    688.63
         B          3.335            3.039     62.89   2506.01
         B          3.336            3.039     62.89   2505.99
         B          3.340            3.039     62.89   2505.89
         B          3.340            3.039     62.89   2505.89
         B          3.336            3.039     62.89   2505.99
         B          3.335            3.039     62.89   2506.01
         N          3.135            2.478     31.22    688.69
         B          3.335            3.039     62.89   2506.01
         B          3.335            3.039     62.89   2506.01
         B          3.360            3.039     62.88   2505.36
         N          3.134            2.478     31.22    688.69
         N          3.134            2.478     31.22    688.70
         N          3.140            2.478     31.22    688.64
         N          3.140            2.478     31.22    688.64
         N          3.158            2.478     31.21    688.49
         N          3.136            2.478     31.22    688.68
         B          3.360            3.039     62.88   2505.36
         Cr1        0.677            3.252   1349.99 124588.88
         Cr2        0.677            3.252   1349.99 124588.88

         Molecular C6 ( Ry / a.u.^6 ) =     78804.23


     Subspace diagonalization in iterative solution of the eigenvalue problem:
     one sub-group per band group will be used
     scalapack distributed-memory algorithm (size of sub-group:  6*  6 procs)

 
     Parallelization info
     --------------------
     sticks:   dense  smooth     PW     G-vecs:    dense   smooth      PW
     Min         235      98     26                36277     9874    1408
     Max         236      99     27                36282     9883    1425
     Sum       11311    4741   1285              1741401   474235   68095
 


     bravais-lattice index     =            4
     lattice parameter (alat)  =      18.9275  a.u.
     unit-cell volume          =   10553.3021 (a.u.)^3
     number of atoms/cell      =           34
     number of atomic types    =            4
     number of electrons       =       156.00
     number of Kohn-Sham states=           94
     kinetic-energy cutoff     =      48.0000  Ry
     charge density cutoff     =     457.0000  Ry
     scf convergence threshold =      1.0E-07
     mixing beta               =       0.5000
     number of iterations used =            8  plain     mixing
     Exchange-correlation= SLA  PW   PBX  PBC
                           (   1   4   3   4   0   0   0)

     celldm(1)=  18.927497  celldm(2)=   0.000000  celldm(3)=   1.797125
     celldm(4)=   0.000000  celldm(5)=   0.000000  celldm(6)=   0.000000

     crystal axes: (cart. coord. in units of alat)
               a(1) = (   1.000000   0.000000   0.000000 )  
               a(2) = (  -0.500000   0.866025   0.000000 )  
               a(3) = (   0.000000   0.000000   1.797125 )  

     reciprocal axes: (cart. coord. in units 2 pi/alat)
               b(1) = (  1.000000  0.577350  0.000000 )  
               b(2) = (  0.000000  1.154701  0.000000 )  
               b(3) = (  0.000000  0.000000  0.556444 )  


     PseudoPot. # 1 for B  read from file:
     /home/sf05/q-e-qe-6.7MaX-Release/pseudo/B.pbe-n-kjpaw_psl.1.0.0.UPF
     MD5 check sum: d9c678ba5d3b2fd7b74e61139c9288d8
     Pseudo is Projector augmented-wave + core cor, Zval =  3.0
     Generated using "atomic" code by A. Dal Corso  v.5.1.2
     Shape of augmentation charge: PSQ
     Using radial grid of 1059 points,  4 beta functions with: 
                l(1) =   0
                l(2) =   0
                l(3) =   1
                l(4) =   1
     Q(r) pseudized with 0 coefficients 


     PseudoPot. # 2 for N  read from file:
     /home/sf05/q-e-qe-6.7MaX-Release/pseudo/N.pbe-n-kjpaw_psl.1.0.0.UPF
     MD5 check sum: e0e4e94a9c4025c5b51bd7d8793849bd
     Pseudo is Projector augmented-wave + core cor, Zval =  5.0
     Generated using "atomic" code by A. Dal Corso  v.5.1.2
     Shape of augmentation charge: PSQ
     Using radial grid of 1085 points,  4 beta functions with: 
                l(1) =   0
                l(2) =   0
                l(3) =   1
                l(4) =   1
     Q(r) pseudized with 0 coefficients 


     PseudoPot. # 3 for Cr read from file:
     /home/sf05/q-e-qe-6.7MaX-Release/pseudo/Cr.pbe-spn-kjpaw_psl.1.0.0.UPF
     MD5 check sum: 198f1a2427a48552563eee314eba32ba
     Pseudo is Projector augmented-wave + core cor, Zval = 14.0
     Generated using &quot;atomic&quot; code by A. Dal Corso  v.6.3
     Shape of augmentation charge: PSQ
     Using radial grid of 1183 points,  6 beta functions with: 
                l(1) =   0
                l(2) =   0
                l(3) =   1
                l(4) =   1
                l(5) =   2
                l(6) =   2
     Q(r) pseudized with 0 coefficients 


     PseudoPot. # 4 for Cr read from file:
     /home/sf05/q-e-qe-6.7MaX-Release/pseudo/Cr.pbe-spn-kjpaw_psl.1.0.0.UPF
     MD5 check sum: 198f1a2427a48552563eee314eba32ba
     Pseudo is Projector augmented-wave + core cor, Zval = 14.0
     Generated using &quot;atomic&quot; code by A. Dal Corso  v.6.3
     Shape of augmentation charge: PSQ
     Using radial grid of 1183 points,  6 beta functions with: 
                l(1) =   0
                l(2) =   0
                l(3) =   1
                l(4) =   1
                l(5) =   2
                l(6) =   2
     Q(r) pseudized with 0 coefficients 


     atomic species   valence    mass     pseudopotential
        B              3.00    10.81100     B ( 1.00)
        N              5.00    14.00674     N ( 1.00)
        Cr1           14.00    51.99610     Cr( 1.00)
        Cr2           14.00    51.99610     Cr( 1.00)

     Starting magnetic structure 
     atomic species   magnetization
        B            0.000
        N            0.000
        Cr1          1.000
        Cr2          1.000

     No symmetry found



   Cartesian axes

     site n.     atom                  positions (alat units)
         1           B   tau(   1) = (  -0.1250000   0.2165064   0.8985623  )
         2           B   tau(   2) = (   0.3750000   0.6495191   0.8985623  )
         3           B   tau(   3) = (   0.2500000   0.0000000   0.8985623  )
         4           B   tau(   4) = (   0.7500000   0.0000000   0.8985623  )
         5           B   tau(   5) = (   0.1250000   0.2165064   0.8985623  )
         6           B   tau(   6) = (  -0.3750000   0.6495191   0.8985623  )
         7           N   tau(   7) = (   0.7500005   0.2886748   0.8985623  )
         8           N   tau(   8) = (   0.3750005   0.5051812   0.8985623  )
         9           N   tau(   9) = (   0.3750005   0.0721685   0.8985623  )
        10           N   tau(  10) = (   0.6250005   0.0721685   0.8985623  )
        11           N   tau(  11) = (   0.2500005   0.2886748   0.8985623  )
        12           N   tau(  12) = (   0.6250005   0.5051812   0.8985623  )
        13           N   tau(  13) = (   0.0000005   0.2886748   0.8985623  )
        14           N   tau(  14) = (   0.2500005   0.7216875   0.8985623  )
        15           N   tau(  15) = (  -0.2499995   0.7216875   0.8985623  )
        16           B   tau(  16) = (   0.0000000   0.4330127   0.8985623  )
        17           B   tau(  17) = (   0.1250000   0.6495191   0.8985623  )
        18           B   tau(  18) = (  -0.1250000   0.6495191   0.8985623  )
        19           B   tau(  19) = (   0.3750000   0.2165064   0.8985623  )
        20           B   tau(  20) = (   0.6250000   0.2165064   0.8985623  )
        21           B   tau(  21) = (   0.5000000   0.4330127   0.8985623  )
        22           N   tau(  22) = (   0.5000005   0.2886748   0.8985623  )
        23           B   tau(  23) = (  -0.2500000   0.4330127   0.8985623  )
        24           B   tau(  24) = (   0.2500000   0.4330127   0.8985623  )
        25           B   tau(  25) = (   0.5000000   0.0000000   0.8985623  )
        26           N   tau(  26) = (  -0.1249995   0.5051812   0.8985623  )
        27           N   tau(  27) = (   0.1250005   0.5051812   0.8985623  )
        28           N   tau(  28) = (   0.0000005   0.7216875   0.8985623  )
        29           N   tau(  29) = (   0.5000005   0.7216875   0.8985623  )
        30           N   tau(  30) = (   0.1250005   0.0721685   0.8985623  )
        31           N   tau(  31) = (   0.8750005   0.0721685   0.8985623  )
        32           B   tau(  32) = (   0.0000000   0.0000000   0.8985623  )
        33           Cr1 tau(  33) = (   0.3935000   0.0000000   1.2040735  )
        34           Cr2 tau(  34) = (   0.1065000   0.0000000   1.2040735  )

     number of k points=    15  Gaussian smearing, width (Ry)=  0.0000
                       cart. coord. in units 2pi/alat
        k(    1) = (   0.1666667   0.2886751   0.0000000), wk =   0.0740741
        k(    2) = (   0.1666667  -0.4811252   0.0000000), wk =   0.0740741
        k(    3) = (   0.1666667  -0.0962250   0.0000000), wk =   0.0740741
        k(    4) = (  -0.5000000  -0.8660254   0.0000000), wk =   0.0370370
        k(    5) = (  -0.1666667   0.2886751   0.0000000), wk =   0.0740741
        k(    6) = (   0.3333333   0.0000000   0.0000000), wk =   0.0740741
        k(    7) = (  -0.1666667  -0.4811252   0.0000000), wk =   0.0740741
        k(    8) = (   0.5000000  -0.0962250   0.0000000), wk =   0.0740741
        k(    9) = (  -0.3333333  -0.3849002   0.0000000), wk =   0.0740741
        k(   10) = (   0.5000000   0.0962250   0.0000000), wk =   0.0740741
        k(   11) = (  -0.3333333   0.3849002   0.0000000), wk =   0.0740741
        k(   12) = (  -0.1666667  -0.0962250   0.0000000), wk =   0.0740741
        k(   13) = (  -0.0000000  -0.1924501   0.0000000), wk =   0.0740741
        k(   14) = (   0.5000000  -0.8660254   0.0000000), wk =   0.0370370
        k(   15) = (  -1.0000000   0.0000000   0.0000000), wk =   0.0370370

     Dense  grid:  1741401 G-vectors     FFT dimensions: ( 135, 135, 240)

     Smooth grid:   474235 G-vectors     FFT dimensions: (  90,  90, 160)

     Estimated max dynamical RAM per process >     218.62 MB

     Estimated total dynamical RAM >      10.25 GB
     Generating pointlists ...
     new r_m :   0.0595 (alat units)  1.1269 (a.u.) for type    1
     new r_m :   0.0595 (alat units)  1.1269 (a.u.) for type    2
     new r_m :   0.1184 (alat units)  2.2408 (a.u.) for type    3
     new r_m :   0.1184 (alat units)  2.2408 (a.u.) for type    4

     Initial potential from superposition of free atoms

     starting charge  155.99382, renormalised to  156.00000

     negative rho (up, down):  6.704E-03 4.655E-04
     Starting wfcs are  148 randomized atomic wfcs
     Checking if some PAW data can be deallocated... 

     total cpu time spent up to now is       20.5 secs

     Self-consistent Calculation

     iteration #  1     ecut=    48.00 Ry     beta= 0.50
     Davidson diagonalization with overlap
     ethr =  1.00E-02,  avg # of iterations =  2.8

     negative rho (up, down):  4.887E-03 2.908E-03

     total cpu time spent up to now is       64.5 secs

     total energy              =   -1130.73930010 Ry
     estimated scf accuracy    <      11.36613870 Ry

     total magnetization       =    12.00 Bohr mag/cell
     absolute magnetization    =    12.12 Bohr mag/cell

     iteration #  2     ecut=    48.00 Ry     beta= 0.50
     Davidson diagonalization with overlap
     ethr =  7.29E-03,  avg # of iterations =  2.8

     negative rho (up, down):  8.841E-03 8.042E-03

     total cpu time spent up to now is      105.6 secs

     total energy              =   -1132.91520814 Ry
     estimated scf accuracy    <       3.79361664 Ry

     total magnetization       =    10.00 Bohr mag/cell
     absolute magnetization    =    10.07 Bohr mag/cell

     iteration #  3     ecut=    48.00 Ry     beta= 0.50
     Davidson diagonalization with overlap
     ethr =  2.43E-03,  avg # of iterations =  6.8

     negative rho (up, down):  4.079E-03 4.139E-03

     total cpu time spent up to now is      147.3 secs

     total energy              =   -1133.56627115 Ry
     estimated scf accuracy    <       0.84276810 Ry

     total magnetization       =    12.00 Bohr mag/cell
     absolute magnetization    =    12.06 Bohr mag/cell

     iteration #  4     ecut=    48.00 Ry     beta= 0.50
     Davidson diagonalization with overlap
     ethr =  5.40E-04,  avg # of iterations =  6.1

     negative rho (up, down):  6.764E-03 7.507E-03

     total cpu time spent up to now is      186.9 secs

     total energy              =   -1133.78604253 Ry
     estimated scf accuracy    <       0.43632375 Ry

     total magnetization       =    10.00 Bohr mag/cell
     absolute magnetization    =    10.02 Bohr mag/cell

     iteration #  5     ecut=    48.00 Ry     beta= 0.50
     Davidson diagonalization with overlap
     ethr =  2.80E-04,  avg # of iterations =  6.7

     negative rho (up, down):  4.898E-03 5.222E-03

     total cpu time spent up to now is      227.8 secs

     total energy              =   -1133.81855216 Ry
     estimated scf accuracy    <       0.02580638 Ry

     total magnetization       =    10.00 Bohr mag/cell
     absolute magnetization    =    10.02 Bohr mag/cell

     iteration #  6     ecut=    48.00 Ry     beta= 0.50
     Davidson diagonalization with overlap
     c_bands:  1 eigenvalues not converged
     c_bands:  1 eigenvalues not converged
     c_bands:  1 eigenvalues not converged
     ethr =  1.65E-05,  avg # of iterations = 13.7

     negative rho (up, down):  3.770E-03 3.910E-03

     total cpu time spent up to now is      284.1 secs

     total energy              =   -1133.82207258 Ry
     estimated scf accuracy    <       0.01927980 Ry

     total magnetization       =    10.00 Bohr mag/cell
     absolute magnetization    =    10.02 Bohr mag/cell

     iteration #  7     ecut=    48.00 Ry     beta= 0.50
     Davidson diagonalization with overlap
     ethr =  1.24E-05,  avg # of iterations =  6.5

     negative rho (up, down):  3.384E-03 3.826E-03

     total cpu time spent up to now is      326.7 secs

     total energy              =   -1133.82663164 Ry
     estimated scf accuracy    <       0.00369513 Ry

     total magnetization       =    10.00 Bohr mag/cell
     absolute magnetization    =    10.02 Bohr mag/cell

     iteration #  8     ecut=    48.00 Ry     beta= 0.50
     Davidson diagonalization with overlap
     ethr =  2.37E-06,  avg # of iterations =  8.6

     negative rho (up, down):  3.188E-03 3.728E-03

     total cpu time spent up to now is      370.8 secs

     total energy              =   -1133.82752466 Ry
     estimated scf accuracy    <       0.00050961 Ry

     total magnetization       =    10.00 Bohr mag/cell
     absolute magnetization    =    10.01 Bohr mag/cell

     iteration #  9     ecut=    48.00 Ry     beta= 0.50
     Davidson diagonalization with overlap
     ethr =  3.27E-07,  avg # of iterations =  3.4

     negative rho (up, down):  3.146E-03 3.736E-03

     total cpu time spent up to now is      405.9 secs

     total energy              =   -1133.82772214 Ry
     estimated scf accuracy    <       0.00006818 Ry

     total magnetization       =    10.00 Bohr mag/cell
     absolute magnetization    =    10.01 Bohr mag/cell

     iteration # 10     ecut=    48.00 Ry     beta= 0.50
     Davidson diagonalization with overlap
     ethr =  4.37E-08,  avg # of iterations =  4.3

     negative rho (up, down):  3.121E-03 3.744E-03

     total cpu time spent up to now is      449.0 secs

     total energy              =   -1133.82779099 Ry
     estimated scf accuracy    <       0.00002817 Ry

     total magnetization       =    10.00 Bohr mag/cell
     absolute magnetization    =    10.01 Bohr mag/cell

     iteration # 11     ecut=    48.00 Ry     beta= 0.50
     Davidson diagonalization with overlap
     ethr =  1.81E-08,  avg # of iterations =  4.1

     negative rho (up, down):  3.115E-03 3.764E-03

     total cpu time spent up to now is      484.7 secs

     total energy              =   -1133.82781979 Ry
     estimated scf accuracy    <       0.00000707 Ry

     total magnetization       =    10.00 Bohr mag/cell
     absolute magnetization    =    10.01 Bohr mag/cell

     iteration # 12     ecut=    48.00 Ry     beta= 0.50
     Davidson diagonalization with overlap
     ethr =  4.53E-09,  avg # of iterations =  4.7

     negative rho (up, down):  3.112E-03 3.785E-03

     total cpu time spent up to now is      523.4 secs

     total energy              =   -1133.82783189 Ry
     estimated scf accuracy    <       0.00000435 Ry

     total magnetization       =    10.00 Bohr mag/cell
     absolute magnetization    =    10.01 Bohr mag/cell

     iteration # 13     ecut=    48.00 Ry     beta= 0.50
     Davidson diagonalization with overlap
     ethr =  2.79E-09,  avg # of iterations =  4.8

     negative rho (up, down):  3.107E-03 3.790E-03

     total cpu time spent up to now is      560.3 secs

     total energy              =   -1133.82783755 Ry
     estimated scf accuracy    <       0.00000030 Ry

     total magnetization       =    10.00 Bohr mag/cell
     absolute magnetization    =    10.01 Bohr mag/cell

     iteration # 14     ecut=    48.00 Ry     beta= 0.50
     Davidson diagonalization with overlap
     ethr =  1.92E-10,  avg # of iterations =  5.3

     negative rho (up, down):  3.105E-03 3.791E-03
 
     Magnetic moment per site:
     atom:    1    charge:    0.8805    magn:    0.0001    constr:    0.0000
     atom:    2    charge:    0.8806    magn:    0.0004    constr:    0.0000
     atom:    3    charge:    0.8792    magn:    0.0001    constr:    0.0000
     atom:    4    charge:    0.8808    magn:    0.0002    constr:    0.0000
     atom:    5    charge:    0.8801    magn:    0.0008    constr:    0.0000
     atom:    6    charge:    0.8800    magn:    0.0001    constr:    0.0000
     atom:    7    charge:    2.8610    magn:    0.0000    constr:    0.0000
     atom:    8    charge:    2.8609    magn:    0.0002    constr:    0.0000
     atom:    9    charge:    2.8610    magn:    0.0063    constr:    0.0000
     atom:   10    charge:    2.8609    magn:    0.0014    constr:    0.0000
     atom:   11    charge:    2.8607    magn:    0.0009    constr:    0.0000
     atom:   12    charge:    2.8609    magn:    0.0003    constr:    0.0000
     atom:   13    charge:    2.8599    magn:    0.0007    constr:    0.0000
     atom:   14    charge:    2.8600    magn:    0.0005    constr:    0.0000
     atom:   15    charge:    2.8594    magn:    0.0045    constr:    0.0000
     atom:   16    charge:    0.8800    magn:    0.0001    constr:    0.0000
     atom:   17    charge:    0.8803    magn:    0.0004    constr:    0.0000
     atom:   18    charge:    0.8797    magn:    0.0001    constr:    0.0000
     atom:   19    charge:    0.8796    magn:    0.0008    constr:    0.0000
     atom:   20    charge:    0.8799    magn:    0.0001    constr:    0.0000
     atom:   21    charge:    0.8797    magn:    0.0001    constr:    0.0000
     atom:   22    charge:    2.8612    magn:    0.0007    constr:    0.0000
     atom:   23    charge:    0.8798    magn:    0.0000    constr:    0.0000
     atom:   24    charge:    0.8799    magn:    0.0001    constr:    0.0000
     atom:   25    charge:    0.8807    magn:   -0.0000    constr:    0.0000
     atom:   26    charge:    2.8598    magn:    0.0003    constr:    0.0000
     atom:   27    charge:    2.8598    magn:    0.0002    constr:    0.0000
     atom:   28    charge:    2.8594    magn:    0.0041    constr:    0.0000
     atom:   29    charge:    2.8593    magn:    0.0041    constr:    0.0000
     atom:   30    charge:    2.8596    magn:    0.0063    constr:    0.0000
     atom:   31    charge:    2.8596    magn:    0.0014    constr:    0.0000
     atom:   32    charge:    0.8809    magn:   -0.0000    constr:    0.0000
     atom:   33    charge:   12.5572    magn:    4.2638    constr:    0.0000
     atom:   34    charge:   12.5572    magn:    4.2637    constr:    0.0000

     total cpu time spent up to now is      599.5 secs

     End of self-consistent calculation

 ------ SPIN UP ------------


          k = 0.1667 0.2887 0.0000 ( 59267 PWs)   bands (ev):

   -72.8812 -72.8744 -44.4285 -44.3588 -44.2813 -44.2746 -44.2553 -44.2485
   -21.2474 -20.6607 -20.6569 -20.1053 -20.0969 -19.5871 -19.5846 -19.1001
   -18.6979 -18.6924 -18.4586 -18.4509 -18.1957 -18.0860 -18.0789 -17.8504
   -12.4846 -12.2078 -12.2015 -11.8216 -11.8184 -11.6593 -11.1920 -11.1901
   -10.3926 -10.3683 -10.1184 -10.1156  -9.5896  -9.5888  -8.8373  -8.8267
    -8.8231  -8.7664  -8.7630  -8.5972  -8.1978  -8.0532  -8.0151  -7.8301
    -7.8276  -7.4396  -7.4374  -7.2837  -7.2580  -7.2084  -7.2076  -6.9622
    -6.9551  -6.5678  -6.5373  -6.1545  -6.1537  -5.8723  -5.4193  -5.2971
    -5.2740  -5.2010  -4.9132  -4.9007  -4.5083  -4.3580  -4.3399  -3.9802
    -2.8453  -2.0146  -1.9930  -1.8170  -1.6313  -1.5762  -1.4891  -1.4757
    -1.3876  -1.3828  -1.3333  -0.7601   0.6822   0.8469   1.0565   1.2012
     1.2963   1.4817   1.5189   1.5743   1.6088   1.7981

          k = 0.1667-0.4811 0.0000 ( 59291 PWs)   bands (ev):

   -72.8812 -72.8744 -44.4285 -44.3588 -44.2813 -44.2746 -44.2553 -44.2485
   -21.1170 -20.9127 -20.7235 -20.1615 -19.8049 -19.4672 -19.3176 -19.1754
   -19.0150 -18.7794 -18.6422 -18.5449 -18.1498 -18.0900 -17.9229 -17.7246
   -12.3487 -12.1138 -12.0453 -11.9070 -11.6811 -11.6596 -11.5532 -10.9428
   -10.8908 -10.6241 -10.5238  -9.8610  -9.6939  -9.3368  -9.1116  -8.6684
    -8.6235  -8.5538  -8.3897  -8.3677  -8.1623  -8.1234  -8.0634  -8.0508
    -7.6894  -7.6241  -7.4948  -7.4750  -7.3567  -7.1716  -7.0684  -6.8611
    -6.6228  -6.3896  -6.1785  -6.1585  -5.9728  -5.9300  -5.7844  -5.7457
    -5.4522  -5.3977  -5.2099  -5.0424  -4.4457  -4.3485  -4.0898  -3.7680
    -2.8424  -2.0143  -1.9936  -1.8135  -1.6296  -1.5760  -1.4918  -1.4761
    -1.3874  -1.3826  -1.3353  -0.7645   0.5962   0.8332   1.0759   1.1145
     1.2436   1.2727   1.3964   1.8408   1.9297   2.1082

          k = 0.1667-0.0962 0.0000 ( 59226 PWs)   bands (ev):

   -72.8812 -72.8744 -44.4285 -44.3588 -44.2813 -44.2746 -44.2553 -44.2485
   -21.3139 -20.5362 -20.3476 -20.3380 -19.9906 -19.9798 -19.8065 -18.7317
   -18.7212 -18.3766 -18.3682 -18.3554 -18.2706 -18.2619 -18.0794 -18.0708
   -12.5087 -12.5021 -12.4087 -11.5828 -11.5760 -11.4280 -11.4204 -10.9272
   -10.9240  -9.9305  -9.9262  -9.6764  -9.3756  -9.3730  -9.2312  -9.2285
    -9.0430  -9.0409  -8.9240  -8.3249  -8.3216  -7.9024  -7.9000  -7.8813
    -7.8457  -7.7711  -7.6114  -7.5809  -7.1376  -7.0903  -6.9600  -6.8892
    -6.8857  -6.8516  -6.5328  -6.5282  -6.2582  -5.3537  -5.3148  -5.1441
    -5.0660  -4.8098  -4.8007  -4.7489  -4.6162  -4.6079  -4.3559  -4.3300
    -2.8486  -2.0149  -1.9924  -1.8204  -1.6339  -1.5763  -1.4866  -1.4753
    -1.3876  -1.3832  -1.3316  -0.7555   0.7819   0.8467   1.0077   1.2103
     1.2604   1.3473   1.5827   1.6013   1.7293   1.9363

          k =-0.5000-0.8660 0.0000 ( 59292 PWs)   bands (ev):

   -72.8812 -72.8744 -44.4285 -44.3588 -44.2814 -44.2746 -44.2553 -44.2485
   -21.0498 -21.0477 -20.4720 -20.4627 -19.4299 -19.4194 -19.4147 -19.4085
   -18.9924 -18.9902 -18.3257 -18.3213 -18.3173 -18.3144 -17.7962 -17.7875
   -12.0713 -12.0664 -12.0639 -12.0614 -11.8804 -11.8721 -11.3295 -11.3283
   -10.2367 -10.2309 -10.1369 -10.1334 -10.1303 -10.1258  -8.5899  -8.5509
    -8.5475  -8.5456  -8.5449  -8.5388  -7.8658  -7.8641  -7.8592  -7.8576
    -7.8259  -7.8197  -7.7837  -7.7519  -7.4905  -7.4873  -6.6137  -6.6069
    -6.3629  -6.3311  -6.3067  -6.2928  -6.1904  -6.1886  -5.7119  -5.6972
    -5.5461  -5.5427  -4.7291  -4.7201  -4.6971  -4.6924  -3.8914  -3.8655
    -2.8292  -2.0120  -1.9929  -1.8151  -1.6320  -1.5754  -1.4928  -1.4758
    -1.3926  -1.3865  -1.3385  -0.8847   0.7838   0.9969   1.1207   1.1671
     1.3632   1.5670   1.5844   1.6056   1.7300   1.7458

          k =-0.1667 0.2887 0.0000 ( 59267 PWs)   bands (ev):

   -72.8812 -72.8744 -44.4285 -44.3588 -44.2813 -44.2746 -44.2553 -44.2485
   -21.2474 -20.6607 -20.6569 -20.1053 -20.0970 -19.5871 -19.5845 -19.1001
   -18.6979 -18.6924 -18.4586 -18.4509 -18.1957 -18.0860 -18.0789 -17.8504
   -12.4846 -12.2079 -12.2015 -11.8216 -11.8185 -11.6593 -11.1920 -11.1901
   -10.3926 -10.3683 -10.1184 -10.1156  -9.5896  -9.5888  -8.8373  -8.8267
    -8.8231  -8.7665  -8.7630  -8.5972  -8.1978  -8.0532  -8.0151  -7.8301
    -7.8276  -7.4397  -7.4373  -7.2837  -7.2580  -7.2084  -7.2075  -6.9622
    -6.9552  -6.5678  -6.5373  -6.1545  -6.1536  -5.8723  -5.4194  -5.2971
    -5.2740  -5.2009  -4.9132  -4.9007  -4.5083  -4.3580  -4.3399  -3.9802
    -2.8453  -2.0146  -1.9930  -1.8170  -1.6313  -1.5762  -1.4891  -1.4757
    -1.3876  -1.3828  -1.3333  -0.7601   0.6822   0.8470   1.0565   1.2012
     1.2963   1.4817   1.5189   1.5743   1.6088   1.7981

          k = 0.3333 0.0000 0.0000 ( 59267 PWs)   bands (ev):

   -72.8812 -72.8744 -44.4285 -44.3588 -44.2814 -44.2746 -44.2553 -44.2485
   -21.2470 -20.6860 -20.6314 -20.1059 -20.0946 -19.6138 -19.5599 -19.1022
   -18.7142 -18.6710 -18.4618 -18.4495 -18.1909 -18.1090 -18.0628 -17.8495
   -12.4843 -12.2090 -12.2001 -11.8300 -11.8123 -11.6570 -11.2106 -11.1723
   -10.3917 -10.3681 -10.1311 -10.1032  -9.5961  -9.5812  -8.8454  -8.8238
    -8.8153  -8.7887  -8.7423  -8.5980  -8.1996  -8.1022  -7.9656  -7.8291
    -7.8265  -7.4453  -7.4310  -7.2940  -7.2424  -7.2186  -7.1972  -6.9647
    -6.9543  -6.6186  -6.4938  -6.1573  -6.1500  -5.8787  -5.4192  -5.3114
    -5.2492  -5.2012  -4.9213  -4.8952  -4.4995  -4.3848  -4.3258  -3.9786
    -2.8369  -2.0128  -1.9922  -1.8181  -1.6338  -1.5758  -1.4894  -1.4754
    -1.3910  -1.3856  -1.3352  -0.8438   0.8291   0.9903   1.0802   1.2489
     1.3202   1.4975   1.5141   1.5550   1.5878   1.8279

          k =-0.1667-0.4811 0.0000 ( 59291 PWs)   bands (ev):

   -72.8812 -72.8744 -44.4285 -44.3588 -44.2813 -44.2746 -44.2553 -44.2485
   -21.1170 -20.9127 -20.7235 -20.1615 -19.8049 -19.4672 -19.3176 -19.1754
   -19.0150 -18.7794 -18.6422 -18.5449 -18.1499 -18.0900 -17.9229 -17.7246
   -12.3487 -12.1138 -12.0453 -11.9069 -11.6811 -11.6596 -11.5533 -10.9428
   -10.8908 -10.6241 -10.5237  -9.8609  -9.6939  -9.3368  -9.1116  -8.6684
    -8.6234  -8.5539  -8.3897  -8.3677  -8.1622  -8.1234  -8.0634  -8.0509
    -7.6894  -7.6241  -7.4948  -7.4750  -7.3567  -7.1715  -7.0684  -6.8611
    -6.6228  -6.3896  -6.1785  -6.1586  -5.9728  -5.9299  -5.7844  -5.7457
    -5.4523  -5.3977  -5.2099  -5.0424  -4.4457  -4.3485  -4.0898  -3.7680
    -2.8424  -2.0143  -1.9936  -1.8135  -1.6296  -1.5760  -1.4918  -1.4761
    -1.3874  -1.3826  -1.3353  -0.7645   0.5962   0.8332   1.0759   1.1145
     1.2436   1.2727   1.3964   1.8408   1.9297   2.1082

          k = 0.5000-0.0962 0.0000 ( 59291 PWs)   bands (ev):

   -72.8812 -72.8744 -44.4285 -44.3588 -44.2813 -44.2746 -44.2553 -44.2485
   -21.1143 -20.9202 -20.7187 -20.1596 -19.8050 -19.4693 -19.3233 -19.1704
   -19.0161 -18.7805 -18.6316 -18.5511 -18.1374 -18.1069 -17.9200 -17.7243
   -12.3477 -12.1143 -12.0433 -11.9110 -11.6931 -11.6449 -11.5556 -10.9430
   -10.8887 -10.6224 -10.5262  -9.8586  -9.6946  -9.3379  -9.1110  -8.6579
    -8.6241  -8.5517  -8.4006  -8.3920  -8.1602  -8.1035  -8.0766  -8.0391
    -7.6853  -7.6246  -7.4939  -7.4761  -7.3504  -7.1730  -7.0693  -6.8604
    -6.6232  -6.3990  -6.1948  -6.1580  -5.9573  -5.9292  -5.7837  -5.7486
    -5.4533  -5.3984  -5.1865  -5.0569  -4.4234  -4.3769  -4.0865  -3.7673
    -2.8293  -2.0120  -1.9929  -1.8151  -1.6325  -1.5754  -1.4927  -1.4758
    -1.3926  -1.3866  -1.3386  -0.8845   0.7703   0.9926   1.1116   1.1582
     1.3019   1.3174   1.5477   1.7486   1.8314   1.9177

          k =-0.3333-0.3849 0.0000 ( 59291 PWs)   bands (ev):

   -72.8812 -72.8744 -44.4285 -44.3588 -44.2813 -44.2746 -44.2553 -44.2485
   -21.1153 -20.9176 -20.7205 -20.1594 -19.8071 -19.4673 -19.3182 -19.1740
   -19.0190 -18.7787 -18.6331 -18.5503 -18.1401 -18.1036 -17.9201 -17.7245
   -12.3482 -12.1124 -12.0456 -11.9100 -11.6821 -11.6574 -11.5545 -10.9429
   -10.8883 -10.6218 -10.5271  -9.8594  -9.6946  -9.3372  -9.1119  -8.6612
    -8.6228  -8.5538  -8.3918  -8.3865  -8.1617  -8.1111  -8.0634  -8.0535
    -7.6856  -7.6231  -7.5006  -7.4699  -7.3490  -7.1731  -7.0698  -6.8686
    -6.6212  -6.3907  -6.1791  -6.1602  -5.9700  -5.9281  -5.7838  -5.7574
    -5.4532  -5.3930  -5.1872  -5.0574  -4.4261  -4.3742  -4.0858  -3.7676
    -2.8336  -2.0129  -1.9933  -1.8145  -1.6312  -1.5756  -1.4922  -1.4761
    -1.3908  -1.3852  -1.3374  -0.8478   0.7085   0.9550   1.1039   1.1502
     1.2325   1.3803   1.4253   1.8013   1.8985   1.9161

          k = 0.5000 0.0962 0.0000 ( 59291 PWs)   bands (ev):

   -72.8812 -72.8744 -44.4285 -44.3588 -44.2813 -44.2746 -44.2553 -44.2485
   -21.1143 -20.9202 -20.7187 -20.1596 -19.8050 -19.4694 -19.3234 -19.1704
   -19.0161 -18.7805 -18.6316 -18.5511 -18.1374 -18.1069 -17.9200 -17.7243
   -12.3477 -12.1143 -12.0432 -11.9110 -11.6931 -11.6449 -11.5556 -10.9430
   -10.8886 -10.6224 -10.5262  -9.8586  -9.6946  -9.3378  -9.1110  -8.6579
    -8.6241  -8.5517  -8.4006  -8.3919  -8.1602  -8.1035  -8.0766  -8.0390
    -7.6854  -7.6245  -7.4939  -7.4762  -7.3504  -7.1731  -7.0692  -6.8604
    -6.6232  -6.3990  -6.1948  -6.1579  -5.9573  -5.9292  -5.7838  -5.7487
    -5.4533  -5.3984  -5.1864  -5.0568  -4.4234  -4.3769  -4.0865  -3.7673
    -2.8293  -2.0120  -1.9929  -1.8151  -1.6325  -1.5754  -1.4927  -1.4758
    -1.3926  -1.3866  -1.3386  -0.8845   0.7703   0.9926   1.1116   1.1582
     1.3019   1.3173   1.5477   1.7486   1.8314   1.9177

          k =-0.3333 0.3849 0.0000 ( 59291 PWs)   bands (ev):

   -72.8812 -72.8744 -44.4285 -44.3588 -44.2813 -44.2746 -44.2553 -44.2485
   -21.1153 -20.9176 -20.7205 -20.1594 -19.8071 -19.4673 -19.3183 -19.1740
   -19.0190 -18.7787 -18.6331 -18.5503 -18.1400 -18.1036 -17.9201 -17.7245
   -12.3482 -12.1124 -12.0456 -11.9100 -11.6821 -11.6574 -11.5545 -10.9429
   -10.8882 -10.6217 -10.5271  -9.8594  -9.6946  -9.3372  -9.1119  -8.6612
    -8.6228  -8.5538  -8.3919  -8.3865  -8.1618  -8.1111  -8.0634  -8.0535
    -7.6856  -7.6231  -7.5006  -7.4699  -7.3490  -7.1730  -7.0699  -6.8686
    -6.6212  -6.3907  -6.1791  -6.1603  -5.9700  -5.9282  -5.7837  -5.7574
    -5.4530  -5.3929  -5.1872  -5.0575  -4.4261  -4.3742  -4.0858  -3.7676
    -2.8336  -2.0129  -1.9933  -1.8145  -1.6312  -1.5756  -1.4922  -1.4761
    -1.3908  -1.3852  -1.3374  -0.8478   0.7085   0.9550   1.1039   1.1502
     1.2325   1.3803   1.4253   1.8014   1.8986   1.9163

          k =-0.1667-0.0962 0.0000 ( 59226 PWs)   bands (ev):

   -72.8812 -72.8744 -44.4285 -44.3588 -44.2813 -44.2746 -44.2553 -44.2485
   -21.3139 -20.5362 -20.3476 -20.3380 -19.9906 -19.9798 -19.8065 -18.7317
   -18.7212 -18.3766 -18.3682 -18.3554 -18.2706 -18.2619 -18.0794 -18.0708
   -12.5087 -12.5021 -12.4087 -11.5827 -11.5760 -11.4280 -11.4204 -10.9272
   -10.9240  -9.9306  -9.9262  -9.6763  -9.3755  -9.3729  -9.2312  -9.2285
    -9.0430  -9.0409  -8.9240  -8.3250  -8.3216  -7.9023  -7.9000  -7.8813
    -7.8457  -7.7711  -7.6114  -7.5809  -7.1376  -7.0903  -6.9600  -6.8892
    -6.8856  -6.8516  -6.5328  -6.5282  -6.2583  -5.3538  -5.3148  -5.1440
    -5.0661  -4.8098  -4.8006  -4.7489  -4.6161  -4.6079  -4.3559  -4.3300
    -2.8486  -2.0149  -1.9924  -1.8204  -1.6339  -1.5763  -1.4866  -1.4753
    -1.3876  -1.3832  -1.3316  -0.7555   0.7819   0.8467   1.0077   1.2103
     1.2604   1.3473   1.5827   1.6013   1.7293   1.9362

          k =-0.0000-0.1925 0.0000 ( 59226 PWs)   bands (ev):

   -72.8812 -72.8744 -44.4285 -44.3587 -44.2814 -44.2746 -44.2553 -44.2485
   -21.3140 -20.5312 -20.3544 -20.3401 -19.9878 -19.9751 -19.8100 -18.7312
   -18.7181 -18.3940 -18.3736 -18.3527 -18.2555 -18.2554 -18.0837 -18.0717
   -12.5100 -12.5010 -12.4086 -11.5849 -11.5756 -11.4269 -11.4182 -10.9287
   -10.9243  -9.9295  -9.9271  -9.6768  -9.3761  -9.3713  -9.2307  -9.2295
    -9.0429  -9.0412  -8.9247  -8.3244  -8.3213  -7.9013  -7.8994  -7.8642
    -7.8441  -7.7728  -7.6345  -7.5918  -7.1140  -7.0868  -6.9586  -6.8910
    -6.8855  -6.8634  -6.5332  -6.5270  -6.2589  -5.3450  -5.3152  -5.1442
    -5.0659  -4.8366  -4.8080  -4.7524  -4.5958  -4.5895  -4.3585  -4.3367
    -2.8527  -2.0158  -1.9928  -1.8198  -1.6326  -1.5765  -1.4868  -1.4753
    -1.3860  -1.3818  -1.3308  -0.7067   0.6654   0.8062   0.9970   1.1821
     1.2472   1.3794   1.5777   1.6184   1.6876   2.0013

          k = 0.5000-0.8660 0.0000 ( 59292 PWs)   bands (ev):

   -72.8812 -72.8744 -44.4285 -44.3588 -44.2814 -44.2746 -44.2553 -44.2485
   -21.0499 -21.0477 -20.4720 -20.4627 -19.4299 -19.4194 -19.4147 -19.4085
   -18.9924 -18.9902 -18.3257 -18.3213 -18.3174 -18.3144 -17.7962 -17.7875
   -12.0713 -12.0664 -12.0639 -12.0614 -11.8804 -11.8721 -11.3295 -11.3282
   -10.2368 -10.2310 -10.1369 -10.1334 -10.1303 -10.1258  -8.5899  -8.5509
    -8.5475  -8.5456  -8.5449  -8.5388  -7.8658  -7.8641  -7.8591  -7.8576
    -7.8260  -7.8198  -7.7837  -7.7519  -7.4906  -7.4873  -6.6136  -6.6068
    -6.3629  -6.3311  -6.3067  -6.2928  -6.1904  -6.1885  -5.7120  -5.6972
    -5.5463  -5.5427  -4.7291  -4.7200  -4.6970  -4.6925  -3.8914  -3.8656
    -2.8292  -2.0120  -1.9929  -1.8151  -1.6320  -1.5754  -1.4928  -1.4758
    -1.3926  -1.3865  -1.3385  -0.8847   0.7838   0.9970   1.1207   1.1671
     1.3631   1.5670   1.5844   1.6055   1.7302   1.7458

          k =-1.0000 0.0000 0.0000 ( 59292 PWs)   bands (ev):

   -72.8812 -72.8744 -44.4285 -44.3588 -44.2813 -44.2746 -44.2553 -44.2485
   -21.0747 -21.0200 -20.4767 -20.4627 -19.4247 -19.4216 -19.4202 -19.4001
   -19.0133 -18.9708 -18.3713 -18.3357 -18.2920 -18.2807 -17.7986 -17.7867
   -12.1025 -12.0816 -12.0397 -12.0350 -11.8824 -11.8708 -11.3510 -11.3091
   -10.2424 -10.2398 -10.1329 -10.1317 -10.1249 -10.1239  -8.6321  -8.5751
    -8.5582  -8.5281  -8.5175  -8.4914  -7.8758  -7.8697  -7.8610  -7.8604
    -7.8174  -7.8142  -7.7908  -7.7582  -7.5141  -7.4660  -6.6131  -6.6046
    -6.3574  -6.3284  -6.3093  -6.2790  -6.2089  -6.1728  -5.7382  -5.6780
    -5.5669  -5.5224  -4.7946  -4.7537  -4.6492  -4.6443  -3.8895  -3.8697
    -2.8466  -2.0147  -1.9936  -1.8129  -1.6288  -1.5761  -1.4918  -1.4759
    -1.3857  -1.3813  -1.3344  -0.7166   0.5531   0.7475   1.0688   1.1134
     1.1894   1.5472   1.5760   1.5997   1.6414   1.9393

 ------ SPIN DOWN ----------


          k = 0.1667 0.2887 0.0000 ( 59267 PWs)   bands (ev):

   -68.6813 -68.6734 -40.3587 -40.2755 -40.0985 -40.0904 -40.0519 -40.0437
   -21.2437 -20.6570 -20.6533 -20.1012 -20.0936 -19.5839 -19.5804 -19.0963
   -18.6933 -18.6885 -18.4544 -18.4473 -18.1910 -18.0821 -18.0758 -17.8464
   -12.4823 -12.2051 -12.1994 -11.8193 -11.8164 -11.6572 -11.1896 -11.1876
   -10.3898 -10.3659 -10.1155 -10.1131  -9.5870  -9.5866  -8.8249  -8.8207
    -8.8169  -8.7643  -8.7604  -8.5949  -8.1955  -8.0300  -8.0055  -7.8276
    -7.8254  -7.4362  -7.4346  -7.2643  -7.2456  -7.2064  -7.2049  -6.9597
    -6.9530  -6.5472  -6.5291  -6.1519  -6.1512  -5.8566  -5.4163  -5.2745
    -5.2627  -5.1983  -4.8986  -4.8887  -4.4912  -4.3427  -4.3316  -3.9667
    -1.4394   0.3741   0.8119   1.0142   1.1454   1.1976   1.2733   1.3527
     1.4312   1.4925   1.5544   1.6044   1.6287   1.7465   1.9087   1.9784
     2.0376   2.0862   2.1403   2.1841   2.2866   2.3311

          k = 0.1667-0.4811 0.0000 ( 59291 PWs)   bands (ev):

   -68.6813 -68.6734 -40.3587 -40.2755 -40.0985 -40.0904 -40.0519 -40.0437
   -21.1130 -20.9096 -20.7198 -20.1576 -19.8013 -19.4635 -19.3139 -19.1714
   -19.0112 -18.7757 -18.6370 -18.5418 -18.1442 -18.0878 -17.9188 -17.7205
   -12.3464 -12.1115 -12.0431 -11.9048 -11.6791 -11.6570 -11.5510 -10.9401
   -10.8881 -10.6215 -10.5214  -9.8580  -9.6916  -9.3340  -9.1092  -8.6458
    -8.6210  -8.5509  -8.3875  -8.3562  -8.1598  -8.1068  -8.0612  -8.0485
    -7.6866  -7.6217  -7.4924  -7.4728  -7.3395  -7.1687  -7.0661  -6.8457
    -6.6197  -6.3746  -6.1626  -6.1560  -5.9580  -5.9269  -5.7818  -5.7309
    -5.4497  -5.3835  -5.1882  -5.0334  -4.4252  -4.3422  -4.0763  -3.7547
    -1.4299   0.3616   0.8080   0.9742   1.0474   1.1425   1.2292   1.2882
     1.3787   1.4261   1.5668   1.7293   1.8020   1.8802   1.9094   2.0672
     2.1078   2.1363   2.1589   2.2205   2.3074   2.3296

          k = 0.1667-0.0962 0.0000 ( 59226 PWs)   bands (ev):

   -68.6813 -68.6734 -40.3587 -40.2755 -40.0985 -40.0904 -40.0519 -40.0437
   -21.3102 -20.5321 -20.3440 -20.3349 -19.9861 -19.9765 -19.8033 -18.7269
   -18.7176 -18.3718 -18.3646 -18.3518 -18.2661 -18.2581 -18.0756 -18.0677
   -12.5061 -12.5001 -12.4064 -11.5802 -11.5741 -11.4252 -11.4183 -10.9246
   -10.9217  -9.9279  -9.9241  -9.6736  -9.3731  -9.3706  -9.2281  -9.2258
    -9.0406  -9.0386  -8.9060  -8.3218  -8.3188  -7.8997  -7.8975  -7.8602
    -7.8419  -7.7688  -7.5953  -7.5708  -7.1134  -7.0797  -6.9574  -6.8866
    -6.8836  -6.8414  -6.5301  -6.5260  -6.2558  -5.3307  -5.3032  -5.1412
    -5.0633  -4.7916  -4.7846  -4.7376  -4.6023  -4.5950  -4.3405  -4.3208
    -1.4488   0.3885   0.8178   1.0066   1.1077   1.1673   1.2138   1.3308
     1.4723   1.5360   1.5995   1.6941   1.7825   1.8623   1.8935   1.9382
     1.9812   2.0572   2.1201   2.1337   2.2421   2.3021

          k =-0.5000-0.8660 0.0000 ( 59292 PWs)   bands (ev):

   -68.6813 -68.6734 -40.3587 -40.2755 -40.0985 -40.0904 -40.0518 -40.0437
   -21.0464 -21.0436 -20.4682 -20.4595 -19.4246 -19.4155 -19.4114 -19.4053
   -18.9891 -18.9861 -18.3200 -18.3183 -18.3157 -18.3087 -17.7919 -17.7839
   -12.0675 -12.0648 -12.0626 -12.0586 -11.8779 -11.8705 -11.3272 -11.3258
   -10.2339 -10.2289 -10.1337 -10.1307 -10.1276 -10.1237  -8.5628  -8.5451
    -8.5447  -8.5435  -8.5420  -8.5327  -7.8630  -7.8614  -7.8571  -7.8555
    -7.8222  -7.8166  -7.7667  -7.7415  -7.4888  -7.4845  -6.6106  -6.6047
    -6.3336  -6.3126  -6.2963  -6.2840  -6.1882  -6.1852  -5.6945  -5.6881
    -5.5439  -5.5398  -4.7077  -4.6979  -4.6892  -4.6864  -3.8750  -3.8557
    -1.4056   0.1225   0.8128   1.0633   1.0765   1.1643   1.2947   1.4264
     1.5155   1.5404   1.5912   1.7037   1.7599   1.8766   1.9211   1.9563
     1.9704   2.0514   2.1549   2.2143   2.3089   2.3368

          k =-0.1667 0.2887 0.0000 ( 59267 PWs)   bands (ev):

   -68.6813 -68.6734 -40.3587 -40.2755 -40.0985 -40.0904 -40.0519 -40.0437
   -21.2437 -20.6571 -20.6533 -20.1012 -20.0936 -19.5840 -19.5804 -19.0963
   -18.6933 -18.6885 -18.4544 -18.4473 -18.1910 -18.0821 -18.0758 -17.8464
   -12.4823 -12.2051 -12.1994 -11.8193 -11.8164 -11.6572 -11.1896 -11.1876
   -10.3899 -10.3659 -10.1155 -10.1132  -9.5870  -9.5866  -8.8248  -8.8206
    -8.8168  -8.7644  -8.7605  -8.5949  -8.1956  -8.0300  -8.0055  -7.8276
    -7.8253  -7.4362  -7.4346  -7.2643  -7.2456  -7.2064  -7.2048  -6.9597
    -6.9531  -6.5472  -6.5291  -6.1519  -6.1512  -5.8565  -5.4164  -5.2745
    -5.2627  -5.1982  -4.8985  -4.8887  -4.4912  -4.3427  -4.3316  -3.9666
    -1.4394   0.3741   0.8119   1.0142   1.1453   1.1976   1.2733   1.3527
     1.4312   1.4925   1.5544   1.6043   1.6288   1.7465   1.9088   1.9784
     2.0376   2.0863   2.1403   2.1841   2.2866   2.3311

          k = 0.3333 0.0000 0.0000 ( 59267 PWs)   bands (ev):

   -68.6813 -68.6734 -40.3587 -40.2755 -40.0986 -40.0904 -40.0518 -40.0437
   -21.2434 -20.6806 -20.6296 -20.1023 -20.0911 -19.6081 -19.5580 -19.0981
   -18.7082 -18.6692 -18.4576 -18.4457 -18.1870 -18.1028 -18.0609 -17.8457
   -12.4820 -12.2067 -12.1977 -11.8276 -11.8102 -11.6552 -11.2070 -11.1707
   -10.3891 -10.3656 -10.1275 -10.1015  -9.5932  -9.5793  -8.8319  -8.8203
    -8.8080  -8.7851  -8.7410  -8.5956  -8.1971  -8.0736  -7.9618  -7.8267
    -7.8244  -7.4416  -7.4287  -7.2729  -7.2330  -7.2155  -7.1957  -6.9621
    -6.9520  -6.5918  -6.4897  -6.1545  -6.1478  -5.8611  -5.4162  -5.2910
    -5.2387  -5.1985  -4.9049  -4.8841  -4.4846  -4.3672  -4.3162  -3.9657
    -1.4239   0.2037   0.8615   1.0084   1.1217   1.1819   1.2920   1.4422
     1.4760   1.4892   1.5535   1.7154   1.7714   1.8483   1.8927   1.9422
     2.0104   2.0833   2.1258   2.1825   2.2915   2.3177

          k =-0.1667-0.4811 0.0000 ( 59291 PWs)   bands (ev):

   -68.6813 -68.6734 -40.3587 -40.2755 -40.0985 -40.0904 -40.0519 -40.0437
   -21.1130 -20.9096 -20.7198 -20.1576 -19.8013 -19.4634 -19.3139 -19.1714
   -19.0112 -18.7757 -18.6370 -18.5418 -18.1442 -18.0878 -17.9188 -17.7205
   -12.3464 -12.1115 -12.0431 -11.9048 -11.6791 -11.6571 -11.5510 -10.9401
   -10.8881 -10.6215 -10.5214  -9.8580  -9.6916  -9.3341  -9.1092  -8.6458
    -8.6210  -8.5509  -8.3874  -8.3562  -8.1598  -8.1068  -8.0612  -8.0486
    -7.6866  -7.6217  -7.4923  -7.4728  -7.3395  -7.1687  -7.0661  -6.8457
    -6.6197  -6.3746  -6.1627  -6.1561  -5.9580  -5.9268  -5.7817  -5.7309
    -5.4497  -5.3835  -5.1882  -5.0334  -4.4251  -4.3422  -4.0763  -3.7547
    -1.4299   0.3616   0.8080   0.9742   1.0474   1.1425   1.2292   1.2882
     1.3787   1.4262   1.5668   1.7293   1.8020   1.8802   1.9094   2.0671
     2.1078   2.1363   2.1589   2.2205   2.3073   2.3296

          k = 0.5000-0.0962 0.0000 ( 59291 PWs)   bands (ev):

   -68.6813 -68.6734 -40.3587 -40.2755 -40.0985 -40.0904 -40.0518 -40.0437
   -21.1106 -20.9162 -20.7155 -20.1560 -19.8014 -19.4653 -19.3189 -19.1671
   -19.0121 -18.7766 -18.6280 -18.5471 -18.1334 -18.1022 -17.9164 -17.7203
   -12.3454 -12.1120 -12.0412 -11.9085 -11.6903 -11.6435 -11.5531 -10.9405
   -10.8861 -10.6199 -10.5237  -9.8560  -9.6922  -9.3349  -9.1087  -8.6385
    -8.6214  -8.5491  -8.3918  -8.3777  -8.1580  -8.0927  -8.0731  -8.0378
    -7.6831  -7.6222  -7.4915  -7.4739  -7.3350  -7.1699  -7.0668  -6.8453
    -6.6200  -6.3804  -6.1749  -6.1556  -5.9472  -5.9263  -5.7811  -5.7329
    -5.4507  -5.3842  -5.1713  -5.0437  -4.4074  -4.3642  -4.0738  -3.7543
    -1.4057   0.1242   0.8137   1.0355   1.0663   1.1494   1.2207   1.2943
     1.4276   1.5992   1.6879   1.8017   1.8601   1.9204   1.9495   1.9913
     2.0272   2.1056   2.1979   2.2347   2.2954   2.3461

          k =-0.3333-0.3849 0.0000 ( 59291 PWs)   bands (ev):

   -68.6813 -68.6734 -40.3587 -40.2755 -40.0985 -40.0904 -40.0519 -40.0437
   -21.1115 -20.9138 -20.7171 -20.1558 -19.8031 -19.4635 -19.3145 -19.1702
   -19.0147 -18.7750 -18.6292 -18.5465 -18.1356 -18.0996 -17.9165 -17.7204
   -12.3459 -12.1101 -12.0434 -11.9075 -11.6801 -11.6550 -11.5521 -10.9403
   -10.8858 -10.6193 -10.5244  -9.8566  -9.6922  -9.3344  -9.1095  -8.6406
    -8.6203  -8.5508  -8.3888  -8.3700  -8.1594  -8.0981  -8.0611  -8.0509
    -7.6834  -7.6208  -7.4975  -7.4683  -7.3341  -7.1700  -7.0673  -6.8509
    -6.6183  -6.3752  -6.1635  -6.1572  -5.9557  -5.9253  -5.7813  -5.7394
    -5.4505  -5.3804  -5.1722  -5.0438  -4.4096  -4.3618  -4.0735  -3.7545
    -1.4140   0.1908   0.8001   1.0283   1.0603   1.1701   1.2166   1.3040
     1.4105   1.5207   1.6847   1.7763   1.8444   1.9061   1.9451   2.0029
     2.0597   2.0814   2.1420   2.2157   2.3089   2.3350

          k = 0.5000 0.0962 0.0000 ( 59291 PWs)   bands (ev):

   -68.6813 -68.6734 -40.3587 -40.2755 -40.0985 -40.0904 -40.0518 -40.0437
   -21.1106 -20.9162 -20.7155 -20.1560 -19.8014 -19.4653 -19.3189 -19.1671
   -19.0121 -18.7766 -18.6280 -18.5471 -18.1334 -18.1022 -17.9164 -17.7203
   -12.3454 -12.1120 -12.0412 -11.9086 -11.6903 -11.6435 -11.5531 -10.9404
   -10.8861 -10.6199 -10.5237  -9.8560  -9.6922  -9.3349  -9.1086  -8.6385
    -8.6214  -8.5491  -8.3917  -8.3777  -8.1580  -8.0927  -8.0731  -8.0378
    -7.6831  -7.6221  -7.4915  -7.4739  -7.3350  -7.1700  -7.0667  -6.8453
    -6.6200  -6.3804  -6.1749  -6.1555  -5.9472  -5.9262  -5.7812  -5.7329
    -5.4507  -5.3842  -5.1713  -5.0437  -4.4074  -4.3641  -4.0738  -3.7543
    -1.4057   0.1242   0.8137   1.0355   1.0663   1.1494   1.2207   1.2943
     1.4276   1.5992   1.6879   1.8017   1.8601   1.9204   1.9496   1.9913
     2.0272   2.1056   2.1979   2.2347   2.2956   2.3461

          k =-0.3333 0.3849 0.0000 ( 59291 PWs)   bands (ev):

   -68.6813 -68.6734 -40.3587 -40.2755 -40.0985 -40.0904 -40.0519 -40.0437
   -21.1115 -20.9139 -20.7171 -20.1558 -19.8031 -19.4635 -19.3145 -19.1703
   -19.0147 -18.7750 -18.6292 -18.5465 -18.1356 -18.0996 -17.9165 -17.7204
   -12.3459 -12.1101 -12.0434 -11.9075 -11.6801 -11.6551 -11.5521 -10.9404
   -10.8858 -10.6193 -10.5244  -9.8566  -9.6922  -9.3344  -9.1095  -8.6406
    -8.6204  -8.5507  -8.3888  -8.3700  -8.1595  -8.0981  -8.0611  -8.0509
    -7.6833  -7.6208  -7.4975  -7.4683  -7.3341  -7.1700  -7.0674  -6.8509
    -6.6183  -6.3752  -6.1635  -6.1573  -5.9557  -5.9254  -5.7812  -5.7394
    -5.4504  -5.3804  -5.1722  -5.0438  -4.4096  -4.3618  -4.0735  -3.7545
    -1.4140   0.1907   0.8001   1.0284   1.0603   1.1701   1.2167   1.3040
     1.4105   1.5207   1.6848   1.7763   1.8444   1.9061   1.9450   2.0028
     2.0597   2.0814   2.1421   2.2156   2.3089   2.3351

          k =-0.1667-0.0962 0.0000 ( 59226 PWs)   bands (ev):

   -68.6813 -68.6734 -40.3587 -40.2755 -40.0985 -40.0904 -40.0519 -40.0437
   -21.3102 -20.5321 -20.3440 -20.3349 -19.9861 -19.9765 -19.8033 -18.7269
   -18.7175 -18.3718 -18.3646 -18.3517 -18.2661 -18.2581 -18.0756 -18.0677
   -12.5061 -12.5001 -12.4064 -11.5802 -11.5741 -11.4252 -11.4183 -10.9246
   -10.9217  -9.9279  -9.9241  -9.6736  -9.3731  -9.3705  -9.2281  -9.2259
    -9.0406  -9.0386  -8.9060  -8.3219  -8.3188  -7.8997  -7.8975  -7.8602
    -7.8419  -7.7689  -7.5953  -7.5708  -7.1134  -7.0797  -6.9575  -6.8866
    -6.8835  -6.8414  -6.5300  -6.5259  -6.2559  -5.3307  -5.3032  -5.1411
    -5.0634  -4.7915  -4.7846  -4.7377  -4.6023  -4.5950  -4.3405  -4.3208
    -1.4488   0.3885   0.8178   1.0066   1.1077   1.1673   1.2138   1.3308
     1.4723   1.5360   1.5995   1.6941   1.7825   1.8623   1.8935   1.9382
     1.9812   2.0572   2.1201   2.1337   2.2420   2.3022

          k =-0.0000-0.1925 0.0000 ( 59226 PWs)   bands (ev):

   -68.6813 -68.6734 -40.3587 -40.2755 -40.0985 -40.0904 -40.0518 -40.0437
   -21.3103 -20.5277 -20.3499 -20.3367 -19.9839 -19.9722 -19.8064 -18.7266
   -18.7147 -18.3876 -18.3684 -18.3492 -18.2535 -18.2524 -18.0794 -18.0681
   -12.5077 -12.4987 -12.4062 -11.5822 -11.5736 -11.4247 -11.4160 -10.9260
   -10.9219  -9.9272  -9.9247  -9.6739  -9.3733  -9.3692  -9.2280  -9.2266
    -9.0405  -9.0390  -8.9065  -8.3216  -8.3183  -7.8989  -7.8972  -7.8506
    -7.8379  -7.7703  -7.6105  -7.5796  -7.0982  -7.0756  -6.9562  -6.8884
    -6.8832  -6.8500  -6.5306  -6.5248  -6.2563  -5.3255  -5.3024  -5.1414
    -5.0631  -4.8119  -4.7901  -4.7386  -4.5882  -4.5818  -4.3432  -4.3244
    -1.4561   0.5229   0.7776   0.9887   1.1233   1.1529   1.2108   1.3091
     1.4513   1.4788   1.5225   1.6274   1.7307   1.8464   1.9284   1.9479
     2.0549   2.0736   2.1548   2.1687   2.1826   2.3104

          k = 0.5000-0.8660 0.0000 ( 59292 PWs)   bands (ev):

   -68.6813 -68.6734 -40.3587 -40.2755 -40.0985 -40.0904 -40.0518 -40.0437
   -21.0465 -21.0436 -20.4682 -20.4595 -19.4246 -19.4155 -19.4114 -19.4053
   -18.9892 -18.9861 -18.3200 -18.3183 -18.3158 -18.3086 -17.7919 -17.7839
   -12.0675 -12.0648 -12.0626 -12.0585 -11.8779 -11.8704 -11.3272 -11.3257
   -10.2339 -10.2290 -10.1337 -10.1307 -10.1276 -10.1237  -8.5628  -8.5451
    -8.5447  -8.5434  -8.5419  -8.5327  -7.8630  -7.8614  -7.8571  -7.8555
    -7.8223  -7.8166  -7.7667  -7.7415  -7.4889  -7.4845  -6.6105  -6.6046
    -6.3336  -6.3126  -6.2962  -6.2840  -6.1882  -6.1851  -5.6945  -5.6881
    -5.5440  -5.5398  -4.7077  -4.6979  -4.6891  -4.6865  -3.8750  -3.8557
    -1.4056   0.1225   0.8128   1.0634   1.0765   1.1643   1.2947   1.4264
     1.5155   1.5403   1.5912   1.7037   1.7599   1.8765   1.9212   1.9563
     1.9705   2.0514   2.1549   2.2142   2.3087   2.3367

          k =-1.0000 0.0000 0.0000 ( 59292 PWs)   bands (ev):

   -68.6813 -68.6734 -40.3587 -40.2755 -40.0985 -40.0904 -40.0519 -40.0436
   -21.0694 -21.0181 -20.4724 -20.4595 -19.4208 -19.4170 -19.4165 -19.3974
   -19.0075 -18.9690 -18.3636 -18.3294 -18.2906 -18.2800 -17.7941 -17.7830
   -12.0989 -12.0783 -12.0384 -12.0342 -11.8800 -11.8691 -11.3473 -11.3076
   -10.2395 -10.2367 -10.1300 -10.1293 -10.1224 -10.1222  -8.6022  -8.5708
    -8.5552  -8.5269  -8.5166  -8.4877  -7.8724  -7.8665  -7.8580  -7.8579
    -7.8121  -7.8114  -7.7731  -7.7464  -7.5104  -7.4648  -6.6104  -6.6025
    -6.3324  -6.3114  -6.2976  -6.2715  -6.2049  -6.1708  -5.7195  -5.6675
    -5.5627  -5.5213  -4.7644  -4.7308  -4.6465  -4.6421  -3.8747  -3.8575
    -1.4376   0.4829   0.8350   0.9515   1.0418   1.1419   1.2342   1.2727
     1.3703   1.4928   1.5847   1.6418   1.6704   1.8029   1.8733   1.8931
     2.1291   2.1330   2.1518   2.1795   2.3180   2.3334

     the Fermi energy is    -1.1802 ev

!    total energy              =   -1133.82783867 Ry

     total all-electron energy =     -6753.503542 Ry
     estimated scf accuracy    <       0.00000009 Ry
     smearing contrib. (-TS)   =      -0.00000000 Ry
     internal energy E=F+TS    =   -1133.82783867 Ry

     The total energy is F=E-TS. E is the sum of the following terms:
     one-electron contribution =   -3951.22633470 Ry
     hartree contribution      =    2003.79967936 Ry
     xc contribution           =    -186.01683789 Ry
     ewald contribution        =    1358.99279959 Ry
     DFT-D3 Dispersion         =      -0.13485617 Ry
     one-center paw contrib.   =    -359.24228885 Ry

     total magnetization       =    10.00 Bohr mag/cell
     absolute magnetization    =    10.01 Bohr mag/cell

     convergence has been achieved in  14 iterations

     Writing output data file ./mytmp/Crdimer0.1435-0.0.save/
 
     init_run     :     18.72s CPU     20.20s WALL (       1 calls)
     electrons    :    532.60s CPU    579.18s WALL (       1 calls)

     Called by init_run:
     wfcinit      :     13.80s CPU     14.68s WALL (       1 calls)
     potinit      :      1.46s CPU      1.56s WALL (       1 calls)
     hinit0       :      1.51s CPU      1.62s WALL (       1 calls)

     Called by electrons:
     c_bands      :    418.17s CPU    445.57s WALL (      14 calls)
     sum_band     :     81.03s CPU     92.32s WALL (      14 calls)
     v_of_rho     :      7.50s CPU      8.33s WALL (      15 calls)
     newd         :     18.11s CPU     25.16s WALL (      15 calls)
     PAW_pot      :      7.34s CPU      7.44s WALL (      15 calls)
     mix_rho      :      0.97s CPU      1.10s WALL (      14 calls)

     Called by c_bands:
     init_us_2    :      5.03s CPU      5.07s WALL (     870 calls)
     cegterg      :    405.81s CPU    433.12s WALL (     420 calls)

     Called by *egterg:
     cdiaghg      :     25.89s CPU     41.37s WALL (    2834 calls)
     h_psi        :    244.30s CPU    254.84s WALL (    2864 calls)
     s_psi        :     27.42s CPU     27.51s WALL (    2864 calls)
     g_psi        :      0.62s CPU      0.64s WALL (    2414 calls)

     Called by h_psi:
     h_psi:calbec :     29.24s CPU     30.00s WALL (    2864 calls)
     vloc_psi     :    185.09s CPU    194.69s WALL (    2864 calls)
     add_vuspsi   :     27.80s CPU     27.95s WALL (    2864 calls)

     General routines
     calbec       :     38.90s CPU     39.85s WALL (    3284 calls)
     fft          :      9.23s CPU     13.73s WALL (     369 calls)
     ffts         :      0.11s CPU      0.14s WALL (      58 calls)
     fftw         :    190.67s CPU    200.32s WALL (  250014 calls)
     interpolate  :      0.41s CPU      0.46s WALL (      30 calls)
 
     Parallel routines
     fft_scatt_xy :     30.71s CPU     31.97s WALL (  250441 calls)
     fft_scatt_yz :     80.48s CPU     89.68s WALL (  250441 calls)
 
     PWSCF        :   9m13.41s CPU  10m 4.07s WALL

 
   This run was terminated on:  15:54:13   2Apr2021            

=------------------------------------------------------------------------------=
   JOB DONE.
=------------------------------------------------------------------------------=
