
     Program PWSCF v.6.7MaX starts on  2Apr2021 at 15:54:13 

     This program is part of the open-source Quantum ESPRESSO suite
     for quantum simulation of materials; please cite
         "P. Giannozzi et al., J. Phys.:Condens. Matter 21 395502 (2009);
         "P. Giannozzi et al., J. Phys.:Condens. Matter 29 465901 (2017);
          URL http://www.quantum-espresso.org", 
     in publications or presentations arising from this work. More details at
     http://www.quantum-espresso.org/quote

     Parallel version (MPI), running on    48 processors

     MPI processes distributed on     1 nodes
     R & G space division:  proc/nbgrp/npool/nimage =      48
     Reading input from Crdimer0.1435-0.1.scf.in

     Current dimensions of program PWSCF are:
     Max number of different atomic species (ntypx) = 10
     Max number of k-points (npk) =  40000
     Max angular momentum in pseudopotentials (lmaxx) =  3
     file N.pbe-n-kjpaw_psl.1.0.0.UPF: wavefunction(s)  2S renormalized
     file Cr.pbe-spn-kjpaw_psl.1.0.0.UPF: wavefunction(s)  3S 3P 3D renormalized
     file Cr.pbe-spn-kjpaw_psl.1.0.0.UPF: wavefunction(s)  3S 3P 3D renormalized

     --------------------------------------------
     Parameters for DFT-D3 Dispersion Correction:
     --------------------------------------------
       Reference C6 values for interpolation: 

         atom   Coordination number   C6
         B          0.000           214.36
         B          0.971           150.74
         B          1.944           106.23
         B          2.913            62.89
         B          4.586            56.06
         N          0.000            50.54
         N          0.994            44.25
         N          2.014            39.35
         N          2.990            31.16
         Cr1        0.000          1381.48
         Cr1        1.827           571.38
         Cr1       10.619           306.69
         Cr2        0.000          1381.48
         Cr2        1.827           571.38
         Cr2       10.619           306.69

       Values used:

         atom   Coordination number  R0_AB[au]  C6      C8
         B          3.337            3.039     62.89   2505.96
         B          3.335            3.039     62.89   2506.00
         B          3.355            3.039     62.88   2505.48
         B          3.336            3.039     62.89   2505.99
         B          3.354            3.039     62.88   2505.53
         B          3.336            3.039     62.89   2505.98
         N          3.134            2.478     31.22    688.70
         N          3.134            2.478     31.22    688.70
         N          3.167            2.478     31.21    688.43
         N          3.136            2.478     31.22    688.67
         N          3.138            2.478     31.22    688.66
         N          3.134            2.478     31.22    688.70
         N          3.137            2.478     31.22    688.67
         N          3.134            2.478     31.22    688.70
         N          3.137            2.478     31.22    688.67
         B          3.336            3.039     62.89   2506.00
         B          3.335            3.039     62.89   2506.00
         B          3.336            3.039     62.89   2505.98
         B          3.354            3.039     62.88   2505.53
         B          3.337            3.039     62.89   2505.96
         B          3.336            3.039     62.89   2506.00
         N          3.137            2.478     31.22    688.67
         B          3.335            3.039     62.89   2506.01
         B          3.336            3.039     62.89   2505.99
         B          3.351            3.039     62.88   2505.59
         N          3.134            2.478     31.22    688.70
         N          3.134            2.478     31.22    688.70
         N          3.136            2.478     31.22    688.68
         N          3.136            2.478     31.22    688.68
         N          3.167            2.478     31.21    688.43
         N          3.136            2.478     31.22    688.67
         B          3.351            3.039     62.88   2505.59
         Cr1        0.680            3.252   1348.43 124445.14
         Cr2        0.680            3.252   1348.43 124445.14

         Molecular C6 ( Ry / a.u.^6 ) =     78786.27


     Subspace diagonalization in iterative solution of the eigenvalue problem:
     one sub-group per band group will be used
     scalapack distributed-memory algorithm (size of sub-group:  6*  6 procs)

 
     Parallelization info
     --------------------
     sticks:   dense  smooth     PW     G-vecs:    dense   smooth      PW
     Min         235      98     26                36277     9874    1408
     Max         236      99     27                36282     9883    1425
     Sum       11311    4741   1285              1741401   474235   68095
 


     bravais-lattice index     =            4
     lattice parameter (alat)  =      18.9275  a.u.
     unit-cell volume          =   10553.3021 (a.u.)^3
     number of atoms/cell      =           34
     number of atomic types    =            4
     number of electrons       =       156.00
     number of Kohn-Sham states=           94
     kinetic-energy cutoff     =      48.0000  Ry
     charge density cutoff     =     457.0000  Ry
     scf convergence threshold =      1.0E-07
     mixing beta               =       0.5000
     number of iterations used =            8  plain     mixing
     Exchange-correlation= SLA  PW   PBX  PBC
                           (   1   4   3   4   0   0   0)

     celldm(1)=  18.927497  celldm(2)=   0.000000  celldm(3)=   1.797125
     celldm(4)=   0.000000  celldm(5)=   0.000000  celldm(6)=   0.000000

     crystal axes: (cart. coord. in units of alat)
               a(1) = (   1.000000   0.000000   0.000000 )  
               a(2) = (  -0.500000   0.866025   0.000000 )  
               a(3) = (   0.000000   0.000000   1.797125 )  

     reciprocal axes: (cart. coord. in units 2 pi/alat)
               b(1) = (  1.000000  0.577350  0.000000 )  
               b(2) = (  0.000000  1.154701  0.000000 )  
               b(3) = (  0.000000  0.000000  0.556444 )  


     PseudoPot. # 1 for B  read from file:
     /home/sf05/q-e-qe-6.7MaX-Release/pseudo/B.pbe-n-kjpaw_psl.1.0.0.UPF
     MD5 check sum: d9c678ba5d3b2fd7b74e61139c9288d8
     Pseudo is Projector augmented-wave + core cor, Zval =  3.0
     Generated using "atomic" code by A. Dal Corso  v.5.1.2
     Shape of augmentation charge: PSQ
     Using radial grid of 1059 points,  4 beta functions with: 
                l(1) =   0
                l(2) =   0
                l(3) =   1
                l(4) =   1
     Q(r) pseudized with 0 coefficients 


     PseudoPot. # 2 for N  read from file:
     /home/sf05/q-e-qe-6.7MaX-Release/pseudo/N.pbe-n-kjpaw_psl.1.0.0.UPF
     MD5 check sum: e0e4e94a9c4025c5b51bd7d8793849bd
     Pseudo is Projector augmented-wave + core cor, Zval =  5.0
     Generated using "atomic" code by A. Dal Corso  v.5.1.2
     Shape of augmentation charge: PSQ
     Using radial grid of 1085 points,  4 beta functions with: 
                l(1) =   0
                l(2) =   0
                l(3) =   1
                l(4) =   1
     Q(r) pseudized with 0 coefficients 


     PseudoPot. # 3 for Cr read from file:
     /home/sf05/q-e-qe-6.7MaX-Release/pseudo/Cr.pbe-spn-kjpaw_psl.1.0.0.UPF
     MD5 check sum: 198f1a2427a48552563eee314eba32ba
     Pseudo is Projector augmented-wave + core cor, Zval = 14.0
     Generated using &quot;atomic&quot; code by A. Dal Corso  v.6.3
     Shape of augmentation charge: PSQ
     Using radial grid of 1183 points,  6 beta functions with: 
                l(1) =   0
                l(2) =   0
                l(3) =   1
                l(4) =   1
                l(5) =   2
                l(6) =   2
     Q(r) pseudized with 0 coefficients 


     PseudoPot. # 4 for Cr read from file:
     /home/sf05/q-e-qe-6.7MaX-Release/pseudo/Cr.pbe-spn-kjpaw_psl.1.0.0.UPF
     MD5 check sum: 198f1a2427a48552563eee314eba32ba
     Pseudo is Projector augmented-wave + core cor, Zval = 14.0
     Generated using &quot;atomic&quot; code by A. Dal Corso  v.6.3
     Shape of augmentation charge: PSQ
     Using radial grid of 1183 points,  6 beta functions with: 
                l(1) =   0
                l(2) =   0
                l(3) =   1
                l(4) =   1
                l(5) =   2
                l(6) =   2
     Q(r) pseudized with 0 coefficients 


     atomic species   valence    mass     pseudopotential
        B              3.00    10.81100     B ( 1.00)
        N              5.00    14.00674     N ( 1.00)
        Cr1           14.00    51.99610     Cr( 1.00)
        Cr2           14.00    51.99610     Cr( 1.00)

     Starting magnetic structure 
     atomic species   magnetization
        B            0.000
        N            0.000
        Cr1          1.000
        Cr2          1.000

     No symmetry found



   Cartesian axes

     site n.     atom                  positions (alat units)
         1           B   tau(   1) = (  -0.1250000   0.2165064   0.8985623  )
         2           B   tau(   2) = (   0.3750000   0.6495191   0.8985623  )
         3           B   tau(   3) = (   0.2500000   0.0000000   0.8985623  )
         4           B   tau(   4) = (   0.7500000   0.0000000   0.8985623  )
         5           B   tau(   5) = (   0.1250000   0.2165064   0.8985623  )
         6           B   tau(   6) = (  -0.3750000   0.6495191   0.8985623  )
         7           N   tau(   7) = (   0.7500005   0.2886748   0.8985623  )
         8           N   tau(   8) = (   0.3750005   0.5051812   0.8985623  )
         9           N   tau(   9) = (   0.3750005   0.0721685   0.8985623  )
        10           N   tau(  10) = (   0.6250005   0.0721685   0.8985623  )
        11           N   tau(  11) = (   0.2500005   0.2886748   0.8985623  )
        12           N   tau(  12) = (   0.6250005   0.5051812   0.8985623  )
        13           N   tau(  13) = (   0.0000005   0.2886748   0.8985623  )
        14           N   tau(  14) = (   0.2500005   0.7216875   0.8985623  )
        15           N   tau(  15) = (  -0.2499995   0.7216875   0.8985623  )
        16           B   tau(  16) = (   0.0000000   0.4330127   0.8985623  )
        17           B   tau(  17) = (   0.1250000   0.6495191   0.8985623  )
        18           B   tau(  18) = (  -0.1250000   0.6495191   0.8985623  )
        19           B   tau(  19) = (   0.3750000   0.2165064   0.8985623  )
        20           B   tau(  20) = (   0.6250000   0.2165064   0.8985623  )
        21           B   tau(  21) = (   0.5000000   0.4330127   0.8985623  )
        22           N   tau(  22) = (   0.5000005   0.2886748   0.8985623  )
        23           B   tau(  23) = (  -0.2500000   0.4330127   0.8985623  )
        24           B   tau(  24) = (   0.2500000   0.4330127   0.8985623  )
        25           B   tau(  25) = (   0.5000000   0.0000000   0.8985623  )
        26           N   tau(  26) = (  -0.1249995   0.5051812   0.8985623  )
        27           N   tau(  27) = (   0.1250005   0.5051812   0.8985623  )
        28           N   tau(  28) = (   0.0000005   0.7216875   0.8985623  )
        29           N   tau(  29) = (   0.5000005   0.7216875   0.8985623  )
        30           N   tau(  30) = (   0.1250005   0.0721685   0.8985623  )
        31           N   tau(  31) = (   0.8750005   0.0721685   0.8985623  )
        32           B   tau(  32) = (   0.0000000   0.0000000   0.8985623  )
        33           Cr1 tau(  33) = (   0.3935000   0.0866025   1.2040735  )
        34           Cr2 tau(  34) = (   0.1065000   0.0866025   1.2040735  )

     number of k points=    15  Gaussian smearing, width (Ry)=  0.0000
                       cart. coord. in units 2pi/alat
        k(    1) = (   0.1666667   0.2886751   0.0000000), wk =   0.0740741
        k(    2) = (   0.1666667  -0.4811252   0.0000000), wk =   0.0740741
        k(    3) = (   0.1666667  -0.0962250   0.0000000), wk =   0.0740741
        k(    4) = (  -0.5000000  -0.8660254   0.0000000), wk =   0.0370370
        k(    5) = (  -0.1666667   0.2886751   0.0000000), wk =   0.0740741
        k(    6) = (   0.3333333   0.0000000   0.0000000), wk =   0.0740741
        k(    7) = (  -0.1666667  -0.4811252   0.0000000), wk =   0.0740741
        k(    8) = (   0.5000000  -0.0962250   0.0000000), wk =   0.0740741
        k(    9) = (  -0.3333333  -0.3849002   0.0000000), wk =   0.0740741
        k(   10) = (   0.5000000   0.0962250   0.0000000), wk =   0.0740741
        k(   11) = (  -0.3333333   0.3849002   0.0000000), wk =   0.0740741
        k(   12) = (  -0.1666667  -0.0962250   0.0000000), wk =   0.0740741
        k(   13) = (  -0.0000000  -0.1924501   0.0000000), wk =   0.0740741
        k(   14) = (   0.5000000  -0.8660254   0.0000000), wk =   0.0370370
        k(   15) = (  -1.0000000   0.0000000   0.0000000), wk =   0.0370370

     Dense  grid:  1741401 G-vectors     FFT dimensions: ( 135, 135, 240)

     Smooth grid:   474235 G-vectors     FFT dimensions: (  90,  90, 160)

     Estimated max dynamical RAM per process >     218.62 MB

     Estimated total dynamical RAM >      10.25 GB
     Generating pointlists ...
     new r_m :   0.0595 (alat units)  1.1269 (a.u.) for type    1
     new r_m :   0.0595 (alat units)  1.1269 (a.u.) for type    2
     new r_m :   0.1184 (alat units)  2.2408 (a.u.) for type    3
     new r_m :   0.1184 (alat units)  2.2408 (a.u.) for type    4

     Initial potential from superposition of free atoms

     starting charge  155.99382, renormalised to  156.00000

     negative rho (up, down):  6.702E-03 4.655E-04
     Starting wfcs are  148 randomized atomic wfcs
     Checking if some PAW data can be deallocated... 

     total cpu time spent up to now is       20.5 secs

     Self-consistent Calculation

     iteration #  1     ecut=    48.00 Ry     beta= 0.50
     Davidson diagonalization with overlap
     ethr =  1.00E-02,  avg # of iterations =  2.8

     negative rho (up, down):  4.884E-03 2.907E-03

     total cpu time spent up to now is       64.8 secs

     total energy              =   -1130.74248854 Ry
     estimated scf accuracy    <      11.35581318 Ry

     total magnetization       =    12.00 Bohr mag/cell
     absolute magnetization    =    12.16 Bohr mag/cell

     iteration #  2     ecut=    48.00 Ry     beta= 0.50
     Davidson diagonalization with overlap
     ethr =  7.28E-03,  avg # of iterations =  2.7

     negative rho (up, down):  1.081E-02 1.014E-02

     total cpu time spent up to now is      106.0 secs

     total energy              =   -1132.49198818 Ry
     estimated scf accuracy    <       4.81853950 Ry

     total magnetization       =     9.11 Bohr mag/cell
     absolute magnetization    =     9.55 Bohr mag/cell

     iteration #  3     ecut=    48.00 Ry     beta= 0.50
     Davidson diagonalization with overlap
     ethr =  3.09E-03,  avg # of iterations =  7.6

     negative rho (up, down):  7.162E-03 7.125E-03

     total cpu time spent up to now is      151.8 secs

     total energy              =   -1133.49949953 Ry
     estimated scf accuracy    <       1.37887680 Ry

     total magnetization       =    10.00 Bohr mag/cell
     absolute magnetization    =    10.20 Bohr mag/cell

     iteration #  4     ecut=    48.00 Ry     beta= 0.50
     Davidson diagonalization with overlap
     ethr =  8.84E-04,  avg # of iterations =  5.5

     negative rho (up, down):  6.386E-03 5.750E-03

     total cpu time spent up to now is      190.3 secs

     total energy              =   -1133.80562039 Ry
     estimated scf accuracy    <       0.26709089 Ry

     total magnetization       =    10.00 Bohr mag/cell
     absolute magnetization    =    10.06 Bohr mag/cell

     iteration #  5     ecut=    48.00 Ry     beta= 0.50
     Davidson diagonalization with overlap
     ethr =  1.71E-04,  avg # of iterations =  9.9

     negative rho (up, down):  4.041E-03 3.924E-03

     total cpu time spent up to now is      234.8 secs

     total energy              =   -1133.78237225 Ry
     estimated scf accuracy    <       0.28553525 Ry

     total magnetization       =    10.00 Bohr mag/cell
     absolute magnetization    =    10.02 Bohr mag/cell

     iteration #  6     ecut=    48.00 Ry     beta= 0.50
     Davidson diagonalization with overlap
     ethr =  1.71E-04,  avg # of iterations =  5.9

     negative rho (up, down):  3.532E-03 3.917E-03

     total cpu time spent up to now is      275.1 secs

     total energy              =   -1133.81422107 Ry
     estimated scf accuracy    <       0.10364691 Ry

     total magnetization       =    10.00 Bohr mag/cell
     absolute magnetization    =    10.02 Bohr mag/cell

     iteration #  7     ecut=    48.00 Ry     beta= 0.50
     Davidson diagonalization with overlap
     ethr =  6.64E-05,  avg # of iterations =  5.7

     negative rho (up, down):  3.259E-03 3.757E-03

     total cpu time spent up to now is      315.2 secs

     total energy              =   -1133.82533020 Ry
     estimated scf accuracy    <       0.01982419 Ry

     total magnetization       =    10.00 Bohr mag/cell
     absolute magnetization    =    10.02 Bohr mag/cell

     iteration #  8     ecut=    48.00 Ry     beta= 0.50
     Davidson diagonalization with overlap
     ethr =  1.27E-05,  avg # of iterations =  5.9

     negative rho (up, down):  3.143E-03 3.757E-03

     total cpu time spent up to now is      353.0 secs

     total energy              =   -1133.82721552 Ry
     estimated scf accuracy    <       0.00126020 Ry

     total magnetization       =    10.00 Bohr mag/cell
     absolute magnetization    =    10.02 Bohr mag/cell

     iteration #  9     ecut=    48.00 Ry     beta= 0.50
     Davidson diagonalization with overlap
     c_bands:  2 eigenvalues not converged
     c_bands:  2 eigenvalues not converged
     ethr =  8.08E-07,  avg # of iterations =  9.8

     negative rho (up, down):  3.116E-03 3.774E-03

     total cpu time spent up to now is      404.0 secs

     total energy              =   -1133.82751692 Ry
     estimated scf accuracy    <       0.00019526 Ry

     total magnetization       =    10.00 Bohr mag/cell
     absolute magnetization    =    10.01 Bohr mag/cell

     iteration # 10     ecut=    48.00 Ry     beta= 0.50
     Davidson diagonalization with overlap
     ethr =  1.25E-07,  avg # of iterations =  2.9

     negative rho (up, down):  3.106E-03 3.778E-03

     total cpu time spent up to now is      440.8 secs

     total energy              =   -1133.82755753 Ry
     estimated scf accuracy    <       0.00009100 Ry

     total magnetization       =    10.00 Bohr mag/cell
     absolute magnetization    =    10.01 Bohr mag/cell

     iteration # 11     ecut=    48.00 Ry     beta= 0.50
     Davidson diagonalization with overlap
     ethr =  5.83E-08,  avg # of iterations =  2.9

     negative rho (up, down):  3.101E-03 3.785E-03

     total cpu time spent up to now is      475.4 secs

     total energy              =   -1133.82757653 Ry
     estimated scf accuracy    <       0.00001145 Ry

     total magnetization       =    10.00 Bohr mag/cell
     absolute magnetization    =    10.01 Bohr mag/cell

     iteration # 12     ecut=    48.00 Ry     beta= 0.50
     Davidson diagonalization with overlap
     ethr =  7.34E-09,  avg # of iterations =  4.7

     negative rho (up, down):  3.098E-03 3.787E-03

     total cpu time spent up to now is      513.7 secs

     total energy              =   -1133.82758150 Ry
     estimated scf accuracy    <       0.00000153 Ry

     total magnetization       =    10.00 Bohr mag/cell
     absolute magnetization    =    10.01 Bohr mag/cell

     iteration # 13     ecut=    48.00 Ry     beta= 0.50
     Davidson diagonalization with overlap
     ethr =  9.82E-10,  avg # of iterations =  4.1

     negative rho (up, down):  3.097E-03 3.789E-03

     total cpu time spent up to now is      551.2 secs

     total energy              =   -1133.82758258 Ry
     estimated scf accuracy    <       0.00000043 Ry

     total magnetization       =    10.00 Bohr mag/cell
     absolute magnetization    =    10.01 Bohr mag/cell

     iteration # 14     ecut=    48.00 Ry     beta= 0.50
     Davidson diagonalization with overlap
     ethr =  2.76E-10,  avg # of iterations =  3.7

     negative rho (up, down):  3.096E-03 3.790E-03
 
     Magnetic moment per site:
     atom:    1    charge:    0.8807    magn:    0.0001    constr:    0.0000
     atom:    2    charge:    0.8804    magn:    0.0001    constr:    0.0000
     atom:    3    charge:    0.8792    magn:    0.0008    constr:    0.0000
     atom:    4    charge:    0.8807    magn:    0.0002    constr:    0.0000
     atom:    5    charge:    0.8801    magn:    0.0004    constr:    0.0000
     atom:    6    charge:    0.8801    magn:    0.0002    constr:    0.0000
     atom:    7    charge:    2.8611    magn:    0.0001    constr:    0.0000
     atom:    8    charge:    2.8609    magn:    0.0003    constr:    0.0000
     atom:    9    charge:    2.8611    magn:    0.0072    constr:    0.0000
     atom:   10    charge:    2.8609    magn:    0.0015    constr:    0.0000
     atom:   11    charge:    2.8605    magn:    0.0030    constr:    0.0000
     atom:   12    charge:    2.8609    magn:    0.0001    constr:    0.0000
     atom:   13    charge:    2.8598    magn:    0.0023    constr:    0.0000
     atom:   14    charge:    2.8599    magn:    0.0004    constr:    0.0000
     atom:   15    charge:    2.8596    magn:    0.0018    constr:    0.0000
     atom:   16    charge:    0.8800    magn:    0.0002    constr:    0.0000
     atom:   17    charge:    0.8801    magn:    0.0001    constr:    0.0000
     atom:   18    charge:    0.8798    magn:    0.0002    constr:    0.0000
     atom:   19    charge:    0.8795    magn:    0.0004    constr:    0.0000
     atom:   20    charge:    0.8801    magn:    0.0001    constr:    0.0000
     atom:   21    charge:    0.8797    magn:    0.0002    constr:    0.0000
     atom:   22    charge:    2.8611    magn:    0.0023    constr:    0.0000
     atom:   23    charge:    0.8799    magn:    0.0001    constr:    0.0000
     atom:   24    charge:    0.8797    magn:    0.0002    constr:    0.0000
     atom:   25    charge:    0.8804    magn:    0.0002    constr:    0.0000
     atom:   26    charge:    2.8598    magn:    0.0001    constr:    0.0000
     atom:   27    charge:    2.8598    magn:    0.0003    constr:    0.0000
     atom:   28    charge:    2.8596    magn:    0.0019    constr:    0.0000
     atom:   29    charge:    2.8594    magn:    0.0019    constr:    0.0000
     atom:   30    charge:    2.8598    magn:    0.0072    constr:    0.0000
     atom:   31    charge:    2.8596    magn:    0.0015    constr:    0.0000
     atom:   32    charge:    0.8807    magn:    0.0002    constr:    0.0000
     atom:   33    charge:   12.5571    magn:    4.2631    constr:    0.0000
     atom:   34    charge:   12.5570    magn:    4.2631    constr:    0.0000

     total cpu time spent up to now is      587.5 secs

     End of self-consistent calculation

 ------ SPIN UP ------------


          k = 0.1667 0.2887 0.0000 ( 59267 PWs)   bands (ev):

   -72.8827 -72.8759 -44.4264 -44.3567 -44.2925 -44.2858 -44.2511 -44.2443
   -21.2538 -20.6671 -20.6625 -20.1098 -20.1046 -19.5925 -19.5905 -19.1059
   -18.7058 -18.6979 -18.4619 -18.4588 -18.2020 -18.0913 -18.0832 -17.8559
   -12.4907 -12.2113 -12.2093 -11.8265 -11.8239 -11.6648 -11.1979 -11.1955
   -10.3980 -10.3743 -10.1234 -10.1212  -9.5955  -9.5944  -8.8439  -8.8322
    -8.8302  -8.7717  -8.7687  -8.6025  -8.2031  -8.0620  -8.0195  -7.8361
    -7.8334  -7.4452  -7.4431  -7.2884  -7.2670  -7.2144  -7.2130  -6.9650
    -6.9632  -6.5750  -6.5417  -6.1604  -6.1591  -5.8786  -5.4248  -5.3111
    -5.2772  -5.2065  -4.9177  -4.9080  -4.5149  -4.3625  -4.3431  -3.9858
    -2.8465  -2.0180  -2.0017  -1.8203  -1.6497  -1.5598  -1.5011  -1.4930
    -1.3937  -1.3704  -1.2998  -0.7604   0.6446   0.8302   1.0951   1.1935
     1.2773   1.4558   1.5159   1.5745   1.6198   1.7883

          k = 0.1667-0.4811 0.0000 ( 59291 PWs)   bands (ev):

   -72.8827 -72.8759 -44.4265 -44.3567 -44.2925 -44.2858 -44.2512 -44.2443
   -21.1242 -20.9175 -20.7298 -20.1678 -19.8110 -19.4726 -19.3239 -19.1815
   -19.0204 -18.7844 -18.6517 -18.5486 -18.1575 -18.0927 -17.9285 -17.7303
   -12.3551 -12.1200 -12.0505 -11.9118 -11.6864 -11.6650 -11.5585 -10.9480
   -10.8969 -10.6302 -10.5284  -9.8671  -9.6995  -9.3422  -9.1173  -8.6774
    -8.6296  -8.5597  -8.3947  -8.3720  -8.1677  -8.1298  -8.0693  -8.0562
    -7.6962  -7.6296  -7.5008  -7.4799  -7.3642  -7.1767  -7.0739  -6.8682
    -6.6286  -6.3948  -6.1867  -6.1643  -5.9790  -5.9356  -5.7902  -5.7508
    -5.4574  -5.4020  -5.2240  -5.0443  -4.4553  -4.3487  -4.0956  -3.7742
    -2.8435  -2.0185  -2.0012  -1.8169  -1.6482  -1.5595  -1.5034  -1.4948
    -1.3938  -1.3703  -1.3003  -0.7637   0.5635   0.8336   1.0723   1.1380
     1.2075   1.2628   1.3970   1.8348   1.9268   2.1031

          k = 0.1667-0.0962 0.0000 ( 59226 PWs)   bands (ev):

   -72.8827 -72.8759 -44.4264 -44.3567 -44.2926 -44.2858 -44.2511 -44.2443
   -21.3201 -20.5434 -20.3548 -20.3416 -19.9991 -19.9841 -19.8112 -18.7410
   -18.7255 -18.3830 -18.3757 -18.3603 -18.2726 -18.2702 -18.0851 -18.0746
   -12.5121 -12.5103 -12.4141 -11.5895 -11.5805 -11.4305 -11.4288 -10.9330
   -10.9289  -9.9372  -9.9310  -9.6822  -9.3817  -9.3785  -9.2367  -9.2333
    -9.0485  -9.0463  -8.9313  -8.3312  -8.3263  -7.9085  -7.9058  -7.8904
    -7.8513  -7.7766  -7.6196  -7.5833  -7.1488  -7.0932  -6.9661  -6.8955
    -6.8905  -6.8556  -6.5392  -6.5330  -6.2638  -5.3691  -5.3170  -5.1496
    -5.0717  -4.8237  -4.8069  -4.7527  -4.6199  -4.6109  -4.3607  -4.3326
    -2.8495  -2.0175  -2.0022  -1.8236  -1.6524  -1.5600  -1.4990  -1.4912
    -1.3936  -1.3705  -1.2994  -0.7569   0.7345   0.8069   1.0541   1.2052
     1.2911   1.3398   1.5690   1.5847   1.7201   1.8996

          k =-0.5000-0.8660 0.0000 ( 59292 PWs)   bands (ev):

   -72.8827 -72.8759 -44.4265 -44.3567 -44.2926 -44.2858 -44.2511 -44.2443
   -21.0564 -21.0538 -20.4794 -20.4665 -19.4366 -19.4308 -19.4165 -19.4135
   -18.9983 -18.9956 -18.3286 -18.3250 -18.3246 -18.3236 -17.8030 -17.7913
   -12.0741 -12.0714 -12.0704 -12.0698 -11.8868 -11.8768 -11.3352 -11.3335
   -10.2439 -10.2356 -10.1422 -10.1407 -10.1327 -10.1318  -8.5999  -8.5561
    -8.5517  -8.5514  -8.5501  -8.5468  -7.8728  -7.8718  -7.8633  -7.8623
    -7.8312  -7.8236  -7.7931  -7.7545  -7.4951  -7.4937  -6.6209  -6.6115
    -6.3758  -6.3461  -6.3042  -6.2962  -6.1957  -6.1938  -5.7206  -5.7004
    -5.5505  -5.5497  -4.7353  -4.7301  -4.7029  -4.6940  -3.9002  -3.8675
    -2.8302  -2.0171  -1.9979  -1.8180  -1.6496  -1.5589  -1.5028  -1.4967
    -1.3971  -1.3774  -1.3052  -0.8874   0.7320   1.0161   1.1073   1.2148
     1.3191   1.5403   1.5803   1.6216   1.7233   1.7438

          k =-0.1667 0.2887 0.0000 ( 59267 PWs)   bands (ev):

   -72.8827 -72.8759 -44.4264 -44.3567 -44.2925 -44.2858 -44.2511 -44.2443
   -21.2538 -20.6671 -20.6626 -20.1098 -20.1046 -19.5925 -19.5906 -19.1060
   -18.7058 -18.6979 -18.4619 -18.4588 -18.2019 -18.0913 -18.0832 -17.8559
   -12.4907 -12.2113 -12.2093 -11.8265 -11.8240 -11.6648 -11.1978 -11.1955
   -10.3980 -10.3742 -10.1234 -10.1212  -9.5955  -9.5944  -8.8439  -8.8321
    -8.8302  -8.7718  -8.7687  -8.6024  -8.2032  -8.0620  -8.0195  -7.8361
    -7.8333  -7.4452  -7.4431  -7.2884  -7.2670  -7.2143  -7.2130  -6.9650
    -6.9633  -6.5750  -6.5417  -6.1604  -6.1590  -5.8786  -5.4249  -5.3111
    -5.2773  -5.2064  -4.9177  -4.9080  -4.5149  -4.3625  -4.3431  -3.9858
    -2.8465  -2.0180  -2.0017  -1.8203  -1.6497  -1.5598  -1.5011  -1.4930
    -1.3937  -1.3704  -1.2998  -0.7604   0.6446   0.8302   1.0951   1.1935
     1.2773   1.4558   1.5159   1.5744   1.6198   1.7883

          k = 0.3333 0.0000 0.0000 ( 59267 PWs)   bands (ev):

   -72.8827 -72.8759 -44.4264 -44.3567 -44.2926 -44.2858 -44.2511 -44.2443
   -21.2532 -20.6961 -20.6333 -20.1190 -20.0930 -19.6241 -19.5617 -19.1090
   -18.7238 -18.6728 -18.4747 -18.4480 -18.1968 -18.1186 -18.0647 -17.8547
   -12.4894 -12.2197 -12.2015 -11.8377 -11.8160 -11.6623 -11.2180 -11.1755
   -10.3977 -10.3731 -10.1391 -10.1067  -9.6022  -9.5858  -8.8447  -8.8378
    -8.8199  -8.7981  -8.7445  -8.6039  -8.2057  -8.1137  -7.9670  -7.8364
    -7.8302  -7.4516  -7.4358  -7.3084  -7.2400  -7.2255  -7.2013  -6.9761
    -6.9542  -6.6314  -6.4948  -6.1637  -6.1548  -5.8872  -5.4246  -5.3256
    -5.2470  -5.2069  -4.9444  -4.8842  -4.5063  -4.4000  -4.3217  -3.9835
    -2.8378  -2.0170  -1.9988  -1.8211  -1.6519  -1.5593  -1.5003  -1.4942
    -1.3960  -1.3752  -1.3029  -0.8464   0.7533   1.0145   1.1408   1.2341
     1.2957   1.4515   1.5223   1.5649   1.5718   1.8301

          k =-0.1667-0.4811 0.0000 ( 59291 PWs)   bands (ev):

   -72.8827 -72.8759 -44.4265 -44.3567 -44.2925 -44.2858 -44.2512 -44.2443
   -21.1242 -20.9175 -20.7298 -20.1678 -19.8110 -19.4726 -19.3239 -19.1815
   -19.0204 -18.7844 -18.6517 -18.5486 -18.1575 -18.0927 -17.9285 -17.7303
   -12.3552 -12.1200 -12.0505 -11.9118 -11.6864 -11.6650 -11.5585 -10.9480
   -10.8970 -10.6302 -10.5284  -9.8670  -9.6995  -9.3423  -9.1173  -8.6774
    -8.6296  -8.5597  -8.3947  -8.3720  -8.1677  -8.1298  -8.0694  -8.0562
    -7.6962  -7.6297  -7.5007  -7.4799  -7.3642  -7.1766  -7.0739  -6.8682
    -6.6286  -6.3948  -6.1867  -6.1643  -5.9790  -5.9355  -5.7901  -5.7508
    -5.4574  -5.4020  -5.2240  -5.0443  -4.4553  -4.3487  -4.0956  -3.7742
    -2.8435  -2.0185  -2.0012  -1.8169  -1.6482  -1.5595  -1.5034  -1.4948
    -1.3938  -1.3703  -1.3003  -0.7637   0.5635   0.8336   1.0723   1.1379
     1.2075   1.2627   1.3970   1.8348   1.9268   2.1030

          k = 0.5000-0.0962 0.0000 ( 59291 PWs)   bands (ev):

   -72.8827 -72.8759 -44.4264 -44.3567 -44.2925 -44.2858 -44.2511 -44.2443
   -21.1205 -20.9274 -20.7235 -20.1656 -19.8104 -19.4762 -19.3308 -19.1748
   -19.0223 -18.7868 -18.6367 -18.5563 -18.1431 -18.1135 -17.9247 -17.7297
   -12.3528 -12.1210 -12.0482 -11.9175 -11.7010 -11.6477 -11.5610 -10.9487
   -10.8938 -10.6278 -10.5318  -9.8642  -9.7000  -9.3433  -9.1165  -8.6650
    -8.6306  -8.5572  -8.4080  -8.3995  -8.1653  -8.1077  -8.0852  -8.0418
    -7.6908  -7.6303  -7.4997  -7.4814  -7.3570  -7.1787  -7.0748  -6.8654
    -6.6292  -6.4093  -6.2032  -6.1633  -5.9610  -5.9346  -5.7892  -5.7555
    -5.4590  -5.4064  -5.1909  -5.0610  -4.4307  -4.3840  -4.0903  -3.7728
    -2.8302  -2.0171  -1.9979  -1.8180  -1.6503  -1.5588  -1.5028  -1.4967
    -1.3971  -1.3774  -1.3052  -0.8871   0.7145   1.0139   1.1265   1.2059
     1.2580   1.2902   1.5201   1.7499   1.8383   1.9268

          k =-0.3333-0.3849 0.0000 ( 59291 PWs)   bands (ev):

   -72.8827 -72.8759 -44.4264 -44.3567 -44.2925 -44.2858 -44.2511 -44.2443
   -21.1218 -20.9239 -20.7259 -20.1651 -19.8136 -19.4731 -19.3239 -19.1800
   -19.0261 -18.7840 -18.6386 -18.5558 -18.1464 -18.1093 -17.9249 -17.7300
   -12.3543 -12.1176 -12.0515 -11.9152 -11.6881 -11.6627 -11.5600 -10.9485
   -10.8937 -10.6271 -10.5324  -9.8649  -9.7002  -9.3428  -9.1180  -8.6693
    -8.6286  -8.5593  -8.3972  -8.3939  -8.1671  -8.1162  -8.0690  -8.0597
    -7.6911  -7.6285  -7.5079  -7.4738  -7.3549  -7.1787  -7.0758  -6.8768
    -6.6264  -6.3970  -6.1848  -6.1663  -5.9776  -5.9332  -5.7895  -5.7657
    -5.4587  -5.3987  -5.1922  -5.0627  -4.4342  -4.3793  -4.0900  -3.7733
    -2.8347  -2.0175  -1.9994  -1.8176  -1.6491  -1.5591  -1.5028  -1.4963
    -1.3960  -1.3749  -1.3034  -0.8495   0.6659   0.9720   1.0876   1.1881
     1.2166   1.3492   1.4121   1.8179   1.8838   1.9171

          k = 0.5000 0.0962 0.0000 ( 59291 PWs)   bands (ev):

   -72.8827 -72.8759 -44.4264 -44.3567 -44.2925 -44.2858 -44.2511 -44.2443
   -21.1205 -20.9274 -20.7235 -20.1656 -19.8104 -19.4762 -19.3308 -19.1748
   -19.0223 -18.7868 -18.6367 -18.5563 -18.1431 -18.1135 -17.9247 -17.7297
   -12.3528 -12.1210 -12.0482 -11.9175 -11.7010 -11.6477 -11.5610 -10.9487
   -10.8938 -10.6278 -10.5318  -9.8642  -9.7001  -9.3433  -9.1165  -8.6650
    -8.6306  -8.5573  -8.4080  -8.3995  -8.1653  -8.1077  -8.0852  -8.0418
    -7.6908  -7.6303  -7.4997  -7.4815  -7.3570  -7.1787  -7.0748  -6.8654
    -6.6291  -6.4093  -6.2032  -6.1632  -5.9610  -5.9346  -5.7893  -5.7555
    -5.4591  -5.4064  -5.1909  -5.0610  -4.4307  -4.3840  -4.0903  -3.7728
    -2.8302  -2.0171  -1.9979  -1.8180  -1.6503  -1.5588  -1.5028  -1.4967
    -1.3971  -1.3774  -1.3052  -0.8871   0.7146   1.0139   1.1265   1.2060
     1.2581   1.2902   1.5201   1.7499   1.8383   1.9266

          k =-0.3333 0.3849 0.0000 ( 59291 PWs)   bands (ev):

   -72.8827 -72.8759 -44.4264 -44.3567 -44.2925 -44.2858 -44.2511 -44.2443
   -21.1218 -20.9239 -20.7259 -20.1651 -19.8136 -19.4731 -19.3239 -19.1800
   -19.0261 -18.7840 -18.6386 -18.5558 -18.1463 -18.1093 -17.9249 -17.7300
   -12.3543 -12.1176 -12.0515 -11.9152 -11.6881 -11.6628 -11.5600 -10.9486
   -10.8937 -10.6271 -10.5324  -9.8649  -9.7001  -9.3428  -9.1180  -8.6693
    -8.6286  -8.5593  -8.3973  -8.3939  -8.1671  -8.1162  -8.0690  -8.0597
    -7.6910  -7.6285  -7.5079  -7.4737  -7.3549  -7.1787  -7.0758  -6.8768
    -6.6265  -6.3970  -6.1848  -6.1664  -5.9775  -5.9333  -5.7895  -5.7657
    -5.4586  -5.3987  -5.1922  -5.0627  -4.4342  -4.3793  -4.0899  -3.7733
    -2.8347  -2.0175  -1.9994  -1.8176  -1.6491  -1.5591  -1.5028  -1.4963
    -1.3960  -1.3749  -1.3034  -0.8495   0.6659   0.9720   1.0876   1.1882
     1.2166   1.3492   1.4121   1.8179   1.8838   1.9171

          k =-0.1667-0.0962 0.0000 ( 59226 PWs)   bands (ev):

   -72.8827 -72.8759 -44.4264 -44.3567 -44.2926 -44.2858 -44.2511 -44.2443
   -21.3201 -20.5434 -20.3548 -20.3416 -19.9991 -19.9841 -19.8112 -18.7410
   -18.7255 -18.3830 -18.3757 -18.3603 -18.2726 -18.2703 -18.0851 -18.0746
   -12.5121 -12.5103 -12.4141 -11.5895 -11.5805 -11.4306 -11.4288 -10.9330
   -10.9289  -9.9372  -9.9310  -9.6822  -9.3817  -9.3784  -9.2367  -9.2333
    -9.0485  -9.0464  -8.9313  -8.3313  -8.3263  -7.9085  -7.9058  -7.8904
    -7.8513  -7.7766  -7.6196  -7.5833  -7.1488  -7.0932  -6.9661  -6.8954
    -6.8904  -6.8556  -6.5391  -6.5329  -6.2639  -5.3691  -5.3170  -5.1495
    -5.0718  -4.8236  -4.8069  -4.7527  -4.6199  -4.6109  -4.3607  -4.3327
    -2.8495  -2.0175  -2.0022  -1.8236  -1.6524  -1.5600  -1.4990  -1.4912
    -1.3936  -1.3705  -1.2994  -0.7569   0.7345   0.8069   1.0540   1.2051
     1.2911   1.3398   1.5691   1.5847   1.7201   1.8997

          k =-0.0000-0.1925 0.0000 ( 59226 PWs)   bands (ev):

   -72.8827 -72.8759 -44.4264 -44.3567 -44.2926 -44.2858 -44.2511 -44.2443
   -21.3203 -20.5371 -20.3598 -20.3480 -19.9923 -19.9814 -19.8156 -18.7361
   -18.7253 -18.4156 -18.3687 -18.3580 -18.2597 -18.2584 -18.0879 -18.0782
   -12.5203 -12.5023 -12.4139 -11.5897 -11.5816 -11.4381 -11.4181 -10.9339
   -10.9303  -9.9348  -9.9335  -9.6820  -9.3868  -9.3718  -9.2365  -9.2357
    -9.0481  -9.0462  -8.9320  -8.3296  -8.3273  -7.9089  -7.9026  -7.8702
    -7.8509  -7.7789  -7.6401  -7.6015  -7.1182  -7.0935  -6.9643  -6.8961
    -6.8917  -6.8683  -6.5381  -6.5333  -6.2645  -5.3514  -5.3236  -5.1500
    -5.0713  -4.8807  -4.7833  -4.7591  -4.6022  -4.5878  -4.3608  -4.3442
    -2.8538  -2.0180  -2.0036  -1.8232  -1.6513  -1.5603  -1.4997  -1.4905
    -1.3925  -1.3680  -1.2980  -0.7066   0.6390   0.7569   1.0374   1.1753
     1.2442   1.4033   1.5489   1.6093   1.6845   1.9885

          k = 0.5000-0.8660 0.0000 ( 59292 PWs)   bands (ev):

   -72.8827 -72.8759 -44.4265 -44.3567 -44.2926 -44.2858 -44.2511 -44.2443
   -21.0564 -21.0538 -20.4794 -20.4665 -19.4366 -19.4308 -19.4165 -19.4135
   -18.9983 -18.9956 -18.3286 -18.3249 -18.3246 -18.3236 -17.8030 -17.7913
   -12.0742 -12.0714 -12.0704 -12.0698 -11.8868 -11.8767 -11.3351 -11.3335
   -10.2439 -10.2357 -10.1422 -10.1407 -10.1327 -10.1318  -8.5999  -8.5561
    -8.5518  -8.5514  -8.5501  -8.5468  -7.8728  -7.8718  -7.8634  -7.8622
    -7.8313  -7.8236  -7.7931  -7.7545  -7.4951  -7.4937  -6.6208  -6.6115
    -6.3758  -6.3461  -6.3042  -6.2962  -6.1957  -6.1936  -5.7206  -5.7005
    -5.5506  -5.5498  -4.7353  -4.7300  -4.7029  -4.6941  -3.9003  -3.8675
    -2.8302  -2.0171  -1.9979  -1.8180  -1.6496  -1.5589  -1.5028  -1.4967
    -1.3971  -1.3774  -1.3052  -0.8874   0.7320   1.0161   1.1073   1.2148
     1.3191   1.5403   1.5802   1.6216   1.7234   1.7439

          k =-1.0000 0.0000 0.0000 ( 59292 PWs)   bands (ev):

   -72.8827 -72.8759 -44.4265 -44.3567 -44.2926 -44.2858 -44.2511 -44.2443
   -21.0848 -21.0219 -20.4818 -20.4702 -19.4379 -19.4331 -19.4177 -19.4011
   -19.0229 -18.9724 -18.3968 -18.3171 -18.3083 -18.2810 -17.8030 -17.7936
   -12.1235 -12.0730 -12.0509 -12.0343 -11.8870 -11.8768 -11.3584 -11.3122
   -10.2497 -10.2481 -10.1370 -10.1369 -10.1291 -10.1290  -8.6436  -8.5909
    -8.5565  -8.5353  -8.5186  -8.4928  -7.8849  -7.8754  -7.8675  -7.8655
    -7.8202  -7.8175  -7.7969  -7.7674  -7.5235  -7.4681  -6.6175  -6.6115
    -6.3704  -6.3473  -6.3056  -6.2761  -6.2180  -6.1751  -5.7506  -5.6759
    -5.5757  -5.5247  -4.8498  -4.6992  -4.6786  -4.6400  -3.8933  -3.8782
    -2.8478  -2.0190  -2.0016  -1.8166  -1.6478  -1.5597  -1.5037  -1.4940
    -1.3927  -1.3681  -1.2989  -0.7142   0.5232   0.7417   1.0887   1.1090
     1.1619   1.5180   1.5768   1.6193   1.6327   1.9279

 ------ SPIN DOWN ----------


          k = 0.1667 0.2887 0.0000 ( 59267 PWs)   bands (ev):

   -68.6826 -68.6747 -40.3509 -40.2677 -40.1209 -40.1127 -40.0416 -40.0334
   -21.2500 -20.6629 -20.6594 -20.1058 -20.1010 -19.5889 -19.5868 -19.1021
   -18.7003 -18.6947 -18.4580 -18.4550 -18.1973 -18.0872 -18.0802 -17.8519
   -12.4884 -12.2089 -12.2069 -11.8244 -11.8219 -11.6627 -11.1952 -11.1933
   -10.3953 -10.3718 -10.1202 -10.1192  -9.5929  -9.5922  -8.8297  -8.8274
    -8.8241  -8.7695  -8.7662  -8.6002  -8.2009  -8.0380  -8.0102  -7.8335
    -7.8311  -7.4416  -7.4406  -7.2688  -7.2539  -7.2120  -7.2106  -6.9626
    -6.9609  -6.5538  -6.5338  -6.1577  -6.1567  -5.8625  -5.4219  -5.2853
    -5.2670  -5.2038  -4.9033  -4.8955  -4.4976  -4.3477  -4.3350  -3.9722
    -1.4364   0.3809   0.8276   0.9767   1.1259   1.1821   1.2912   1.3647
     1.4009   1.4663   1.5460   1.6169   1.6357   1.7341   1.8874   2.0321
     2.0534   2.0574   2.1400   2.1662   2.2997   2.3351

          k = 0.1667-0.4811 0.0000 ( 59291 PWs)   bands (ev):

   -68.6826 -68.6747 -40.3509 -40.2677 -40.1209 -40.1128 -40.0416 -40.0334
   -21.1200 -20.9144 -20.7260 -20.1639 -19.8073 -19.4688 -19.3201 -19.1775
   -19.0166 -18.7808 -18.6463 -18.5456 -18.1520 -18.0904 -17.9244 -17.7262
   -12.3528 -12.1177 -12.0484 -11.9097 -11.6845 -11.6625 -11.5563 -10.9454
   -10.8942 -10.6276 -10.5261  -9.8641  -9.6972  -9.3395  -9.1149  -8.6540
    -8.6271  -8.5568  -8.3925  -8.3606  -8.1654  -8.1130  -8.0670  -8.0540
    -7.6934  -7.6272  -7.4983  -7.4778  -7.3465  -7.1739  -7.0715  -6.8522
    -6.6255  -6.3797  -6.1697  -6.1617  -5.9641  -5.9325  -5.7875  -5.7360
    -5.4549  -5.3883  -5.2002  -5.0360  -4.4344  -4.3428  -4.0821  -3.7606
    -1.4270   0.3707   0.8266   0.9357   1.0230   1.1428   1.2438   1.2684
     1.3765   1.4228   1.5585   1.7293   1.7748   1.8897   1.9276   2.0504
     2.1068   2.1260   2.1610   2.2026   2.3094   2.3393

          k = 0.1667-0.0962 0.0000 ( 59226 PWs)   bands (ev):

   -68.6826 -68.6747 -40.3509 -40.2677 -40.1209 -40.1127 -40.0416 -40.0334
   -21.3164 -20.5391 -20.3510 -20.3386 -19.9943 -19.9809 -19.8080 -18.7357
   -18.7220 -18.3779 -18.3718 -18.3570 -18.2685 -18.2662 -18.0813 -18.0714
   -12.5098 -12.5080 -12.4119 -11.5869 -11.5788 -11.4282 -11.4264 -10.9304
   -10.9267  -9.9344  -9.9289  -9.6794  -9.3792  -9.3761  -9.2337  -9.2308
    -9.0461  -9.0442  -8.9129  -8.3281  -8.3236  -7.9056  -7.9035  -7.8680
    -7.8479  -7.7743  -7.6031  -7.5735  -7.1235  -7.0831  -6.9634  -6.8928
    -6.8885  -6.8456  -6.5364  -6.5308  -6.2614  -5.3429  -5.3062  -5.1468
    -5.0690  -4.8013  -4.7908  -4.7431  -4.6062  -4.5994  -4.3462  -4.3234
    -1.4456   0.3936   0.8272   0.9782   1.0842   1.1616   1.2075   1.3174
     1.5041   1.5295   1.5990   1.6660   1.7892   1.8247   1.8720   1.9329
     2.0215   2.0708   2.1083   2.1375   2.2543   2.3388

          k =-0.5000-0.8660 0.0000 ( 59292 PWs)   bands (ev):

   -68.6826 -68.6747 -40.3509 -40.2677 -40.1209 -40.1128 -40.0416 -40.0334
   -21.0520 -21.0506 -20.4754 -20.4635 -19.4313 -19.4262 -19.4136 -19.4104
   -18.9939 -18.9926 -18.3230 -18.3223 -18.3215 -18.3188 -17.7986 -17.7878
   -12.0710 -12.0693 -12.0688 -12.0674 -11.8844 -11.8753 -11.3325 -11.3313
   -10.2409 -10.2338 -10.1391 -10.1379 -10.1304 -10.1295  -8.5715  -8.5511
    -8.5500  -8.5492  -8.5473  -8.5391  -7.8697  -7.8690  -7.8614  -7.8603
    -7.8279  -7.8205  -7.7752  -7.7445  -7.4936  -7.4907  -6.6176  -6.6095
    -6.3438  -6.3259  -6.2956  -6.2878  -6.1931  -6.1908  -5.7018  -5.6922
    -5.5482  -5.5468  -4.7130  -4.7068  -4.6948  -4.6896  -3.8834  -3.8581
    -1.4025   0.1263   0.8401   1.0136   1.0662   1.1843   1.2583   1.4003
     1.5033   1.5550   1.5742   1.7193   1.7625   1.8739   1.9125   1.9449
     1.9577   2.0975   2.1671   2.1815   2.3201   2.3457

          k =-0.1667 0.2887 0.0000 ( 59267 PWs)   bands (ev):

   -68.6826 -68.6747 -40.3509 -40.2677 -40.1209 -40.1127 -40.0416 -40.0334
   -21.2500 -20.6629 -20.6594 -20.1058 -20.1010 -19.5889 -19.5868 -19.1021
   -18.7003 -18.6947 -18.4580 -18.4550 -18.1972 -18.0872 -18.0802 -17.8519
   -12.4884 -12.2089 -12.2069 -11.8244 -11.8219 -11.6627 -11.1952 -11.1932
   -10.3953 -10.3718 -10.1202 -10.1192  -9.5929  -9.5922  -8.8296  -8.8274
    -8.8241  -8.7696  -8.7662  -8.6002  -8.2010  -8.0380  -8.0102  -7.8335
    -7.8311  -7.4417  -7.4405  -7.2688  -7.2539  -7.2120  -7.2106  -6.9627
    -6.9610  -6.5538  -6.5338  -6.1577  -6.1566  -5.8625  -5.4220  -5.2853
    -5.2670  -5.2037  -4.9033  -4.8955  -4.4976  -4.3477  -4.3350  -3.9722
    -1.4364   0.3809   0.8277   0.9767   1.1259   1.1821   1.2912   1.3647
     1.4009   1.4664   1.5460   1.6169   1.6357   1.7340   1.8874   2.0321
     2.0534   2.0574   2.1401   2.1661   2.2999   2.3351

          k = 0.3333 0.0000 0.0000 ( 59267 PWs)   bands (ev):

   -68.6826 -68.6747 -40.3509 -40.2677 -40.1209 -40.1127 -40.0416 -40.0334
   -21.2495 -20.6906 -20.6315 -20.1149 -20.0899 -19.6184 -19.5598 -19.1047
   -18.7179 -18.6709 -18.4702 -18.4445 -18.1927 -18.1125 -18.0627 -17.8508
   -12.4872 -12.2169 -12.1995 -11.8352 -11.8141 -11.6605 -11.2146 -11.1739
   -10.3951 -10.3708 -10.1355 -10.1050  -9.5994  -9.5839  -8.8347  -8.8280
    -8.8152  -8.7945  -8.7433  -8.6015  -8.2031  -8.0846  -7.9632  -7.8340
    -7.8282  -7.4479  -7.4336  -7.2860  -7.2317  -7.2224  -7.1997  -6.9731
    -6.9522  -6.6036  -6.4906  -6.1609  -6.1526  -5.8687  -5.4217  -5.3029
    -5.2384  -5.2042  -4.9250  -4.8757  -4.4907  -4.3805  -4.3143  -3.9706
    -1.4207   0.2073   0.8830   0.9715   1.1290   1.1672   1.2538   1.4351
     1.4677   1.4958   1.5561   1.7109   1.7594   1.8586   1.8962   1.9161
     2.0149   2.0608   2.1402   2.2120   2.2995   2.3367

          k =-0.1667-0.4811 0.0000 ( 59291 PWs)   bands (ev):

   -68.6826 -68.6747 -40.3509 -40.2677 -40.1209 -40.1128 -40.0416 -40.0334
   -21.1200 -20.9144 -20.7260 -20.1639 -19.8073 -19.4688 -19.3201 -19.1775
   -19.0166 -18.7808 -18.6463 -18.5456 -18.1520 -18.0904 -17.9244 -17.7262
   -12.3528 -12.1176 -12.0484 -11.9097 -11.6845 -11.6625 -11.5563 -10.9454
   -10.8942 -10.6276 -10.5261  -9.8641  -9.6972  -9.3395  -9.1149  -8.6540
    -8.6271  -8.5568  -8.3925  -8.3606  -8.1653  -8.1130  -8.0670  -8.0540
    -7.6934  -7.6273  -7.4982  -7.4778  -7.3465  -7.1738  -7.0715  -6.8522
    -6.6255  -6.3798  -6.1697  -6.1618  -5.9641  -5.9324  -5.7874  -5.7360
    -5.4550  -5.3883  -5.2002  -5.0360  -4.4344  -4.3428  -4.0821  -3.7606
    -1.4270   0.3707   0.8266   0.9357   1.0230   1.1428   1.2438   1.2684
     1.3765   1.4228   1.5585   1.7293   1.7748   1.8897   1.9276   2.0504
     2.1067   2.1260   2.1610   2.2026   2.3092   2.3386

          k = 0.5000-0.0962 0.0000 ( 59291 PWs)   bands (ev):

   -68.6826 -68.6747 -40.3509 -40.2677 -40.1209 -40.1127 -40.0416 -40.0334
   -21.1168 -20.9232 -20.7204 -20.1620 -19.8068 -19.4720 -19.3262 -19.1716
   -19.0183 -18.7829 -18.6332 -18.5524 -18.1391 -18.1089 -17.9211 -17.7256
   -12.3506 -12.1186 -12.0463 -11.9150 -11.6982 -11.6464 -11.5585 -10.9461
   -10.8914 -10.6253 -10.5293  -9.8616  -9.6977  -9.3404  -9.1142  -8.6450
    -8.6278  -8.5546  -8.3983  -8.3857  -8.1631  -8.0971  -8.0817  -8.0406
    -7.6885  -7.6279  -7.4972  -7.4792  -7.3412  -7.1756  -7.0723  -6.8504
    -6.6259  -6.3887  -6.1831  -6.1609  -5.9510  -5.9317  -5.7866  -5.7393
    -5.4564  -5.3914  -5.1762  -5.0482  -4.4135  -4.3711  -4.0782  -3.7598
    -1.4025   0.1281   0.8389   0.9905   1.0442   1.1730   1.2177   1.2676
     1.4103   1.5987   1.6807   1.7844   1.8808   1.9153   1.9551   1.9846
     2.0259   2.0882   2.1970   2.2461   2.2986   2.3517

          k =-0.3333-0.3849 0.0000 ( 59291 PWs)   bands (ev):

   -68.6826 -68.6747 -40.3509 -40.2677 -40.1209 -40.1128 -40.0416 -40.0334
   -21.1179 -20.9201 -20.7225 -20.1615 -19.8096 -19.4693 -19.3201 -19.1762
   -19.0217 -18.7803 -18.6347 -18.5520 -18.1418 -18.1053 -17.9213 -17.7259
   -12.3520 -12.1154 -12.0493 -11.9129 -11.6861 -11.6604 -11.5576 -10.9460
   -10.8913 -10.6247 -10.5298  -9.8621  -9.6978  -9.3401  -9.1155  -8.6480
    -8.6262  -8.5563  -8.3944  -8.3769  -8.1648  -8.1033  -8.0666  -8.0572
    -7.6888  -7.6262  -7.5047  -7.4722  -7.3398  -7.1757  -7.0732  -6.8583
    -6.6235  -6.3811  -6.1693  -6.1631  -5.9623  -5.9304  -5.7869  -5.7472
    -5.4561  -5.3858  -5.1773  -5.0492  -4.4165  -4.3673  -4.0780  -3.7601
    -1.4109   0.1957   0.8255   0.9837   1.0340   1.1760   1.2278   1.2998
     1.3839   1.5105   1.6883   1.7553   1.8476   1.8999   1.9414   2.0205
     2.0602   2.0895   2.1359   2.2064   2.3144   2.3416

          k = 0.5000 0.0962 0.0000 ( 59291 PWs)   bands (ev):

   -68.6826 -68.6747 -40.3509 -40.2677 -40.1209 -40.1127 -40.0416 -40.0334
   -21.1168 -20.9232 -20.7204 -20.1620 -19.8068 -19.4720 -19.3262 -19.1716
   -19.0183 -18.7829 -18.6332 -18.5524 -18.1391 -18.1089 -17.9211 -17.7256
   -12.3506 -12.1186 -12.0462 -11.9150 -11.6982 -11.6464 -11.5585 -10.9461
   -10.8914 -10.6254 -10.5293  -9.8616  -9.6977  -9.3404  -9.1141  -8.6450
    -8.6278  -8.5546  -8.3983  -8.3857  -8.1631  -8.0971  -8.0817  -8.0405
    -7.6886  -7.6278  -7.4973  -7.4793  -7.3412  -7.1757  -7.0723  -6.8504
    -6.6259  -6.3887  -6.1831  -6.1608  -5.9510  -5.9317  -5.7867  -5.7393
    -5.4564  -5.3914  -5.1762  -5.0482  -4.4135  -4.3711  -4.0782  -3.7598
    -1.4025   0.1282   0.8389   0.9905   1.0442   1.1730   1.2177   1.2676
     1.4103   1.5987   1.6807   1.7844   1.8808   1.9153   1.9551   1.9846
     2.0259   2.0882   2.1969   2.2466   2.2983   2.3518

          k =-0.3333 0.3849 0.0000 ( 59291 PWs)   bands (ev):

   -68.6826 -68.6747 -40.3509 -40.2677 -40.1209 -40.1128 -40.0416 -40.0334
   -21.1179 -20.9201 -20.7225 -20.1615 -19.8096 -19.4693 -19.3201 -19.1762
   -19.0217 -18.7804 -18.6347 -18.5520 -18.1418 -18.1053 -17.9213 -17.7259
   -12.3520 -12.1154 -12.0493 -11.9129 -11.6861 -11.6605 -11.5576 -10.9460
   -10.8913 -10.6247 -10.5298  -9.8621  -9.6978  -9.3401  -9.1155  -8.6480
    -8.6262  -8.5563  -8.3945  -8.3769  -8.1648  -8.1033  -8.0666  -8.0572
    -7.6888  -7.6262  -7.5048  -7.4722  -7.3398  -7.1756  -7.0733  -6.8583
    -6.6236  -6.3811  -6.1693  -6.1632  -5.9623  -5.9305  -5.7869  -5.7472
    -5.4560  -5.3858  -5.1773  -5.0492  -4.4165  -4.3673  -4.0780  -3.7601
    -1.4109   0.1956   0.8255   0.9837   1.0339   1.1760   1.2278   1.2998
     1.3839   1.5105   1.6883   1.7554   1.8476   1.8999   1.9415   2.0204
     2.0603   2.0895   2.1361   2.2064   2.3147   2.3418

          k =-0.1667-0.0962 0.0000 ( 59226 PWs)   bands (ev):

   -68.6826 -68.6747 -40.3509 -40.2677 -40.1209 -40.1127 -40.0416 -40.0334
   -21.3164 -20.5391 -20.3510 -20.3386 -19.9943 -19.9809 -19.8080 -18.7357
   -18.7220 -18.3779 -18.3718 -18.3570 -18.2685 -18.2662 -18.0813 -18.0714
   -12.5098 -12.5080 -12.4118 -11.5869 -11.5787 -11.4282 -11.4265 -10.9304
   -10.9267  -9.9344  -9.9289  -9.6794  -9.3792  -9.3761  -9.2337  -9.2308
    -9.0461  -9.0442  -8.9129  -8.3281  -8.3236  -7.9056  -7.9034  -7.8680
    -7.8478  -7.7744  -7.6031  -7.5735  -7.1235  -7.0831  -6.9635  -6.8928
    -6.8884  -6.8456  -6.5363  -6.5307  -6.2614  -5.3429  -5.3062  -5.1467
    -5.0691  -4.8013  -4.7908  -4.7432  -4.6062  -4.5994  -4.3462  -4.3234
    -1.4456   0.3936   0.8272   0.9782   1.0842   1.1616   1.2075   1.3174
     1.5042   1.5294   1.5990   1.6661   1.7892   1.8247   1.8719   1.9329
     2.0215   2.0707   2.1084   2.1373   2.2544   2.3385

          k =-0.0000-0.1925 0.0000 ( 59226 PWs)   bands (ev):

   -68.6826 -68.6747 -40.3509 -40.2677 -40.1209 -40.1127 -40.0416 -40.0334
   -21.3165 -20.5335 -20.3553 -20.3444 -19.9884 -19.9784 -19.8119 -18.7315
   -18.7217 -18.4081 -18.3645 -18.3547 -18.2580 -18.2549 -18.0837 -18.0746
   -12.5176 -12.5005 -12.4116 -11.5872 -11.5796 -11.4355 -11.4163 -10.9312
   -10.9280  -9.9324  -9.9311  -9.6793  -9.3839  -9.3699  -9.2337  -9.2328
    -9.0458  -9.0440  -8.9133  -8.3267  -8.3243  -7.9064  -7.9004  -7.8558
    -7.8449  -7.7764  -7.6160  -7.5886  -7.1024  -7.0821  -6.9619  -6.8935
    -6.8894  -6.8552  -6.5355  -6.5310  -6.2619  -5.3307  -5.3101  -5.1471
    -5.0686  -4.8484  -4.7722  -4.7449  -4.5954  -4.5795  -4.3465  -4.3315
    -1.4530   0.5330   0.7795   0.9690   1.0886   1.1426   1.2402   1.2602
     1.4748   1.4764   1.5385   1.6062   1.7236   1.8195   1.9091   2.0057
     2.0603   2.0639   2.1348   2.1562   2.1848   2.3239

          k = 0.5000-0.8660 0.0000 ( 59292 PWs)   bands (ev):

   -68.6826 -68.6747 -40.3509 -40.2677 -40.1209 -40.1128 -40.0416 -40.0334
   -21.0520 -21.0506 -20.4754 -20.4635 -19.4313 -19.4262 -19.4136 -19.4104
   -18.9940 -18.9925 -18.3230 -18.3224 -18.3215 -18.3187 -17.7986 -17.7878
   -12.0710 -12.0693 -12.0688 -12.0673 -11.8844 -11.8752 -11.3325 -11.3313
   -10.2409 -10.2338 -10.1390 -10.1379 -10.1304 -10.1296  -8.5715  -8.5511
    -8.5500  -8.5493  -8.5472  -8.5391  -7.8697  -7.8690  -7.8614  -7.8602
    -7.8280  -7.8205  -7.7752  -7.7445  -7.4936  -7.4907  -6.6175  -6.6094
    -6.3438  -6.3259  -6.2956  -6.2878  -6.1931  -6.1906  -5.7018  -5.6923
    -5.5483  -5.5469  -4.7130  -4.7068  -4.6948  -4.6896  -3.8834  -3.8581
    -1.4025   0.1263   0.8401   1.0136   1.0662   1.1843   1.2584   1.4003
     1.5033   1.5549   1.5741   1.7193   1.7625   1.8739   1.9125   1.9449
     1.9577   2.0976   2.1670   2.1815   2.3197   2.3458

          k =-1.0000 0.0000 0.0000 ( 59292 PWs)   bands (ev):

   -68.6826 -68.6747 -40.3509 -40.2677 -40.1209 -40.1128 -40.0416 -40.0334
   -21.0794 -21.0200 -20.4776 -20.4667 -19.4335 -19.4289 -19.4138 -19.3986
   -19.0172 -18.9705 -18.3882 -18.3133 -18.3051 -18.2804 -17.7985 -17.7899
   -12.1190 -12.0707 -12.0494 -12.0336 -11.8847 -11.8750 -11.3549 -11.3107
   -10.2466 -10.2448 -10.1344 -10.1343 -10.1272 -10.1268  -8.6131  -8.5864
    -8.5539  -8.5338  -8.5179  -8.4891  -7.8811  -7.8722  -7.8650  -7.8632
    -7.8155  -7.8145  -7.7787  -7.7548  -7.5198  -7.4670  -6.6148  -6.6092
    -6.3444  -6.3277  -6.2945  -6.2700  -6.2139  -6.1732  -5.7305  -5.6673
    -5.5716  -5.5236  -4.8116  -4.6872  -4.6708  -4.6387  -3.8789  -3.8652
    -1.4347   0.4978   0.8401   0.9340   1.0210   1.1158   1.2407   1.2695
     1.3663   1.4751   1.6058   1.6394   1.6682   1.7763   1.8686   1.9328
     2.0796   2.0980   2.1671   2.1695   2.3273   2.3562

     the Fermi energy is    -1.1706 ev

!    total energy              =   -1133.82758295 Ry

     total all-electron energy =     -6753.503286 Ry
     estimated scf accuracy    <       0.00000010 Ry
     smearing contrib. (-TS)   =      -0.00000000 Ry
     internal energy E=F+TS    =   -1133.82758295 Ry

     The total energy is F=E-TS. E is the sum of the following terms:
     one-electron contribution =   -3951.23894915 Ry
     hartree contribution      =    2003.77901844 Ry
     xc contribution           =    -186.01572375 Ry
     ewald contribution        =    1359.02500138 Ry
     DFT-D3 Dispersion         =      -0.13464722 Ry
     one-center paw contrib.   =    -359.24228265 Ry

     total magnetization       =    10.00 Bohr mag/cell
     absolute magnetization    =    10.01 Bohr mag/cell

     convergence has been achieved in  14 iterations

     Writing output data file ./mytmp/Crdimer0.1435-0.1.save/
 
     init_run     :     18.95s CPU     20.18s WALL (       1 calls)
     electrons    :    524.25s CPU    567.18s WALL (       1 calls)

     Called by init_run:
     wfcinit      :     13.95s CPU     14.68s WALL (       1 calls)
     potinit      :      1.49s CPU      1.55s WALL (       1 calls)
     hinit0       :      1.54s CPU      1.61s WALL (       1 calls)

     Called by electrons:
     c_bands      :    408.91s CPU    432.91s WALL (      14 calls)
     sum_band     :     81.57s CPU     92.72s WALL (      14 calls)
     v_of_rho     :      7.62s CPU      8.38s WALL (      15 calls)
     newd         :     18.28s CPU     25.24s WALL (      15 calls)
     PAW_pot      :      7.39s CPU      7.48s WALL (      15 calls)
     mix_rho      :      0.96s CPU      1.11s WALL (      14 calls)

     Called by c_bands:
     init_us_2    :      5.05s CPU      5.09s WALL (     870 calls)
     cegterg      :    396.56s CPU    420.50s WALL (     420 calls)

     Called by *egterg:
     cdiaghg      :     23.50s CPU     37.49s WALL (    2641 calls)
     h_psi        :    240.09s CPU    248.93s WALL (    2671 calls)
     s_psi        :     26.48s CPU     26.55s WALL (    2671 calls)
     g_psi        :      0.68s CPU      0.69s WALL (    2221 calls)

     Called by h_psi:
     h_psi:calbec :     28.40s CPU     28.99s WALL (    2671 calls)
     vloc_psi     :    182.40s CPU    190.51s WALL (    2671 calls)
     add_vuspsi   :     26.97s CPU     27.08s WALL (    2671 calls)

     General routines
     calbec       :     38.05s CPU     38.82s WALL (    3091 calls)
     fft          :      9.44s CPU     13.93s WALL (     369 calls)
     ffts         :      0.15s CPU      0.17s WALL (      58 calls)
     fftw         :    189.37s CPU    197.70s WALL (  245134 calls)
     interpolate  :      0.44s CPU      0.51s WALL (      30 calls)
 
     Parallel routines
     fft_scatt_xy :     30.99s CPU     32.04s WALL (  245561 calls)
     fft_scatt_yz :     78.83s CPU     87.37s WALL (  245561 calls)
 
     PWSCF        :   9m 5.22s CPU   9m52.05s WALL

 
   This run was terminated on:  16: 4: 5   2Apr2021            

=------------------------------------------------------------------------------=
   JOB DONE.
=------------------------------------------------------------------------------=
