
     Program PWSCF v.6.7MaX starts on  2Apr2021 at 12:36:35 

     This program is part of the open-source Quantum ESPRESSO suite
     for quantum simulation of materials; please cite
         "P. Giannozzi et al., J. Phys.:Condens. Matter 21 395502 (2009);
         "P. Giannozzi et al., J. Phys.:Condens. Matter 29 465901 (2017);
          URL http://www.quantum-espresso.org", 
     in publications or presentations arising from this work. More details at
     http://www.quantum-espresso.org/quote

     Parallel version (MPI), running on    48 processors

     MPI processes distributed on     1 nodes
     R & G space division:  proc/nbgrp/npool/nimage =      48
     Reading input from Crdimer0.141-0.5.scf.in

     Current dimensions of program PWSCF are:
     Max number of different atomic species (ntypx) = 10
     Max number of k-points (npk) =  40000
     Max angular momentum in pseudopotentials (lmaxx) =  3
     file N.pbe-n-kjpaw_psl.1.0.0.UPF: wavefunction(s)  2S renormalized
     file Cr.pbe-spn-kjpaw_psl.1.0.0.UPF: wavefunction(s)  3S 3P 3D renormalized
     file Cr.pbe-spn-kjpaw_psl.1.0.0.UPF: wavefunction(s)  3S 3P 3D renormalized

     --------------------------------------------
     Parameters for DFT-D3 Dispersion Correction:
     --------------------------------------------
       Reference C6 values for interpolation: 

         atom   Coordination number   C6
         B          0.000           214.36
         B          0.971           150.74
         B          1.944           106.23
         B          2.913            62.89
         B          4.586            56.06
         N          0.000            50.54
         N          0.994            44.25
         N          2.014            39.35
         N          2.990            31.16
         Cr1        0.000          1381.48
         Cr1        1.827           571.38
         Cr1       10.619           306.69
         Cr2        0.000          1381.48
         Cr2        1.827           571.38
         Cr2       10.619           306.69

       Values used:

         atom   Coordination number  R0_AB[au]  C6      C8
         B          3.336            3.039     62.89   2505.99
         B          3.340            3.039     62.89   2505.88
         B          3.335            3.039     62.89   2506.01
         B          3.335            3.039     62.89   2506.01
         B          3.340            3.039     62.89   2505.88
         B          3.336            3.039     62.89   2505.99
         N          3.134            2.478     31.22    688.69
         N          3.158            2.478     31.21    688.49
         N          3.134            2.478     31.22    688.69
         N          3.134            2.478     31.22    688.70
         N          3.142            2.478     31.21    688.62
         N          3.136            2.478     31.22    688.68
         N          3.140            2.478     31.22    688.64
         N          3.135            2.478     31.22    688.69
         N          3.134            2.478     31.22    688.70
         B          3.359            3.039     62.88   2505.39
         B          3.340            3.039     62.89   2505.88
         B          3.336            3.039     62.89   2505.99
         B          3.340            3.039     62.89   2505.88
         B          3.336            3.039     62.89   2505.99
         B          3.359            3.039     62.88   2505.39
         N          3.140            2.478     31.22    688.64
         B          3.336            3.039     62.89   2505.99
         B          3.366            3.039     62.87   2505.19
         B          3.335            3.039     62.89   2506.01
         N          3.136            2.478     31.22    688.68
         N          3.158            2.478     31.21    688.49
         N          3.135            2.478     31.22    688.69
         N          3.135            2.478     31.22    688.69
         N          3.134            2.478     31.22    688.69
         N          3.134            2.478     31.22    688.70
         B          3.335            3.039     62.89   2506.01
         Cr1        0.745            3.252   1301.18 120083.83
         Cr2        0.745            3.252   1301.18 120083.83

         Molecular C6 ( Ry / a.u.^6 ) =     78238.79


     Subspace diagonalization in iterative solution of the eigenvalue problem:
     one sub-group per band group will be used
     scalapack distributed-memory algorithm (size of sub-group:  6*  6 procs)

 
     Parallelization info
     --------------------
     sticks:   dense  smooth     PW     G-vecs:    dense   smooth      PW
     Min         235      98     26                36277     9874    1408
     Max         236      99     27                36282     9883    1425
     Sum       11311    4741   1285              1741401   474235   68095
 


     bravais-lattice index     =            4
     lattice parameter (alat)  =      18.9275  a.u.
     unit-cell volume          =   10553.3021 (a.u.)^3
     number of atoms/cell      =           34
     number of atomic types    =            4
     number of electrons       =       156.00
     number of Kohn-Sham states=           94
     kinetic-energy cutoff     =      48.0000  Ry
     charge density cutoff     =     457.0000  Ry
     scf convergence threshold =      1.0E-07
     mixing beta               =       0.5000
     number of iterations used =            8  plain     mixing
     Exchange-correlation= SLA  PW   PBX  PBC
                           (   1   4   3   4   0   0   0)

     celldm(1)=  18.927497  celldm(2)=   0.000000  celldm(3)=   1.797125
     celldm(4)=   0.000000  celldm(5)=   0.000000  celldm(6)=   0.000000

     crystal axes: (cart. coord. in units of alat)
               a(1) = (   1.000000   0.000000   0.000000 )  
               a(2) = (  -0.500000   0.866025   0.000000 )  
               a(3) = (   0.000000   0.000000   1.797125 )  

     reciprocal axes: (cart. coord. in units 2 pi/alat)
               b(1) = (  1.000000  0.577350  0.000000 )  
               b(2) = (  0.000000  1.154701  0.000000 )  
               b(3) = (  0.000000  0.000000  0.556444 )  


     PseudoPot. # 1 for B  read from file:
     /home/sf05/q-e-qe-6.7MaX-Release/pseudo/B.pbe-n-kjpaw_psl.1.0.0.UPF
     MD5 check sum: d9c678ba5d3b2fd7b74e61139c9288d8
     Pseudo is Projector augmented-wave + core cor, Zval =  3.0
     Generated using "atomic" code by A. Dal Corso  v.5.1.2
     Shape of augmentation charge: PSQ
     Using radial grid of 1059 points,  4 beta functions with: 
                l(1) =   0
                l(2) =   0
                l(3) =   1
                l(4) =   1
     Q(r) pseudized with 0 coefficients 


     PseudoPot. # 2 for N  read from file:
     /home/sf05/q-e-qe-6.7MaX-Release/pseudo/N.pbe-n-kjpaw_psl.1.0.0.UPF
     MD5 check sum: e0e4e94a9c4025c5b51bd7d8793849bd
     Pseudo is Projector augmented-wave + core cor, Zval =  5.0
     Generated using "atomic" code by A. Dal Corso  v.5.1.2
     Shape of augmentation charge: PSQ
     Using radial grid of 1085 points,  4 beta functions with: 
                l(1) =   0
                l(2) =   0
                l(3) =   1
                l(4) =   1
     Q(r) pseudized with 0 coefficients 


     PseudoPot. # 3 for Cr read from file:
     /home/sf05/q-e-qe-6.7MaX-Release/pseudo/Cr.pbe-spn-kjpaw_psl.1.0.0.UPF
     MD5 check sum: 198f1a2427a48552563eee314eba32ba
     Pseudo is Projector augmented-wave + core cor, Zval = 14.0
     Generated using &quot;atomic&quot; code by A. Dal Corso  v.6.3
     Shape of augmentation charge: PSQ
     Using radial grid of 1183 points,  6 beta functions with: 
                l(1) =   0
                l(2) =   0
                l(3) =   1
                l(4) =   1
                l(5) =   2
                l(6) =   2
     Q(r) pseudized with 0 coefficients 


     PseudoPot. # 4 for Cr read from file:
     /home/sf05/q-e-qe-6.7MaX-Release/pseudo/Cr.pbe-spn-kjpaw_psl.1.0.0.UPF
     MD5 check sum: 198f1a2427a48552563eee314eba32ba
     Pseudo is Projector augmented-wave + core cor, Zval = 14.0
     Generated using &quot;atomic&quot; code by A. Dal Corso  v.6.3
     Shape of augmentation charge: PSQ
     Using radial grid of 1183 points,  6 beta functions with: 
                l(1) =   0
                l(2) =   0
                l(3) =   1
                l(4) =   1
                l(5) =   2
                l(6) =   2
     Q(r) pseudized with 0 coefficients 


     atomic species   valence    mass     pseudopotential
        B              3.00    10.81100     B ( 1.00)
        N              5.00    14.00674     N ( 1.00)
        Cr1           14.00    51.99610     Cr( 1.00)
        Cr2           14.00    51.99610     Cr( 1.00)

     Starting magnetic structure 
     atomic species   magnetization
        B            0.000
        N            0.000
        Cr1          1.000
        Cr2          1.000

     No symmetry found



   Cartesian axes

     site n.     atom                  positions (alat units)
         1           B   tau(   1) = (  -0.1250000   0.2165064   0.8985623  )
         2           B   tau(   2) = (   0.3750000   0.6495191   0.8985623  )
         3           B   tau(   3) = (   0.2500000   0.0000000   0.8985623  )
         4           B   tau(   4) = (   0.7500000   0.0000000   0.8985623  )
         5           B   tau(   5) = (   0.1250000   0.2165064   0.8985623  )
         6           B   tau(   6) = (  -0.3750000   0.6495191   0.8985623  )
         7           N   tau(   7) = (   0.7500005   0.2886748   0.8985623  )
         8           N   tau(   8) = (   0.3750005   0.5051812   0.8985623  )
         9           N   tau(   9) = (   0.3750005   0.0721685   0.8985623  )
        10           N   tau(  10) = (   0.6250005   0.0721685   0.8985623  )
        11           N   tau(  11) = (   0.2500005   0.2886748   0.8985623  )
        12           N   tau(  12) = (   0.6250005   0.5051812   0.8985623  )
        13           N   tau(  13) = (   0.0000005   0.2886748   0.8985623  )
        14           N   tau(  14) = (   0.2500005   0.7216875   0.8985623  )
        15           N   tau(  15) = (  -0.2499995   0.7216875   0.8985623  )
        16           B   tau(  16) = (   0.0000000   0.4330127   0.8985623  )
        17           B   tau(  17) = (   0.1250000   0.6495191   0.8985623  )
        18           B   tau(  18) = (  -0.1250000   0.6495191   0.8985623  )
        19           B   tau(  19) = (   0.3750000   0.2165064   0.8985623  )
        20           B   tau(  20) = (   0.6250000   0.2165064   0.8985623  )
        21           B   tau(  21) = (   0.5000000   0.4330127   0.8985623  )
        22           N   tau(  22) = (   0.5000005   0.2886748   0.8985623  )
        23           B   tau(  23) = (  -0.2500000   0.4330127   0.8985623  )
        24           B   tau(  24) = (   0.2500000   0.4330127   0.8985623  )
        25           B   tau(  25) = (   0.5000000   0.0000000   0.8985623  )
        26           N   tau(  26) = (  -0.1249995   0.5051812   0.8985623  )
        27           N   tau(  27) = (   0.1250005   0.5051812   0.8985623  )
        28           N   tau(  28) = (   0.0000005   0.7216875   0.8985623  )
        29           N   tau(  29) = (   0.5000005   0.7216875   0.8985623  )
        30           N   tau(  30) = (   0.1250005   0.0721685   0.8985623  )
        31           N   tau(  31) = (   0.8750005   0.0721685   0.8985623  )
        32           B   tau(  32) = (   0.0000000   0.0000000   0.8985623  )
        33           Cr1 tau(  33) = (   0.3910000   0.4330127   1.2040735  )
        34           Cr2 tau(  34) = (   0.1090000   0.4330127   1.2040735  )

     number of k points=    15  Gaussian smearing, width (Ry)=  0.0000
                       cart. coord. in units 2pi/alat
        k(    1) = (   0.1666667   0.2886751   0.0000000), wk =   0.0740741
        k(    2) = (   0.1666667  -0.4811252   0.0000000), wk =   0.0740741
        k(    3) = (   0.1666667  -0.0962250   0.0000000), wk =   0.0740741
        k(    4) = (  -0.5000000  -0.8660254   0.0000000), wk =   0.0370370
        k(    5) = (  -0.1666667   0.2886751   0.0000000), wk =   0.0740741
        k(    6) = (   0.3333333   0.0000000   0.0000000), wk =   0.0740741
        k(    7) = (  -0.1666667  -0.4811252   0.0000000), wk =   0.0740741
        k(    8) = (   0.5000000  -0.0962250   0.0000000), wk =   0.0740741
        k(    9) = (  -0.3333333  -0.3849002   0.0000000), wk =   0.0740741
        k(   10) = (   0.5000000   0.0962250   0.0000000), wk =   0.0740741
        k(   11) = (  -0.3333333   0.3849002   0.0000000), wk =   0.0740741
        k(   12) = (  -0.1666667  -0.0962250   0.0000000), wk =   0.0740741
        k(   13) = (  -0.0000000  -0.1924501   0.0000000), wk =   0.0740741
        k(   14) = (   0.5000000  -0.8660254   0.0000000), wk =   0.0370370
        k(   15) = (  -1.0000000   0.0000000   0.0000000), wk =   0.0370370

     Dense  grid:  1741401 G-vectors     FFT dimensions: ( 135, 135, 240)

     Smooth grid:   474235 G-vectors     FFT dimensions: (  90,  90, 160)

     Estimated max dynamical RAM per process >     218.62 MB

     Estimated total dynamical RAM >      10.25 GB
     Generating pointlists ...
     new r_m :   0.0595 (alat units)  1.1269 (a.u.) for type    1
     new r_m :   0.0595 (alat units)  1.1269 (a.u.) for type    2
     new r_m :   0.1163 (alat units)  2.2017 (a.u.) for type    3
     new r_m :   0.1163 (alat units)  2.2017 (a.u.) for type    4

     Initial potential from superposition of free atoms

     starting charge  155.99382, renormalised to  156.00000

     negative rho (up, down):  6.711E-03 4.655E-04
     Starting wfcs are  148 randomized atomic wfcs
     Checking if some PAW data can be deallocated... 

     total cpu time spent up to now is       19.6 secs

     Self-consistent Calculation

     iteration #  1     ecut=    48.00 Ry     beta= 0.50
     Davidson diagonalization with overlap
     ethr =  1.00E-02,  avg # of iterations =  2.8

     negative rho (up, down):  4.897E-03 2.911E-03

     total cpu time spent up to now is       60.1 secs

     total energy              =   -1130.73635962 Ry
     estimated scf accuracy    <      11.36495529 Ry

     total magnetization       =    12.00 Bohr mag/cell
     absolute magnetization    =    12.12 Bohr mag/cell

     iteration #  2     ecut=    48.00 Ry     beta= 0.50
     Davidson diagonalization with overlap
     ethr =  7.29E-03,  avg # of iterations =  2.8

     negative rho (up, down):  8.744E-03 7.882E-03

     total cpu time spent up to now is       97.3 secs

     total energy              =   -1132.93851319 Ry
     estimated scf accuracy    <       3.72061856 Ry

     total magnetization       =    10.00 Bohr mag/cell
     absolute magnetization    =    10.07 Bohr mag/cell

     iteration #  3     ecut=    48.00 Ry     beta= 0.50
     Davidson diagonalization with overlap
     ethr =  2.39E-03,  avg # of iterations =  7.0

     negative rho (up, down):  4.118E-03 3.871E-03

     total cpu time spent up to now is      135.2 secs

     total energy              =   -1133.56951862 Ry
     estimated scf accuracy    <       0.85257109 Ry

     total magnetization       =    10.89 Bohr mag/cell
     absolute magnetization    =    10.95 Bohr mag/cell

     iteration #  4     ecut=    48.00 Ry     beta= 0.50
     Davidson diagonalization with overlap
     ethr =  5.47E-04,  avg # of iterations =  6.3

     negative rho (up, down):  7.216E-03 7.495E-03

     total cpu time spent up to now is      171.0 secs

     total energy              =   -1133.76760282 Ry
     estimated scf accuracy    <       0.50967962 Ry

     total magnetization       =    10.00 Bohr mag/cell
     absolute magnetization    =    10.01 Bohr mag/cell

     iteration #  5     ecut=    48.00 Ry     beta= 0.50
     Davidson diagonalization with overlap
     ethr =  3.27E-04,  avg # of iterations =  6.0

     negative rho (up, down):  4.668E-03 4.323E-03

     total cpu time spent up to now is      208.6 secs

     total energy              =   -1133.80806313 Ry
     estimated scf accuracy    <       0.13077939 Ry

     total magnetization       =    10.00 Bohr mag/cell
     absolute magnetization    =    10.01 Bohr mag/cell

     iteration #  6     ecut=    48.00 Ry     beta= 0.50
     Davidson diagonalization with overlap
     ethr =  8.38E-05,  avg # of iterations =  6.3

     negative rho (up, down):  3.741E-03 3.917E-03

     total cpu time spent up to now is      246.0 secs

     total energy              =   -1133.82286677 Ry
     estimated scf accuracy    <       0.02268580 Ry

     total magnetization       =    10.00 Bohr mag/cell
     absolute magnetization    =    10.02 Bohr mag/cell

     iteration #  7     ecut=    48.00 Ry     beta= 0.50
     Davidson diagonalization with overlap
     ethr =  1.45E-05,  avg # of iterations =  9.9

     negative rho (up, down):  3.298E-03 3.802E-03

     total cpu time spent up to now is      287.0 secs

     total energy              =   -1133.82730178 Ry
     estimated scf accuracy    <       0.00518015 Ry

     total magnetization       =    10.00 Bohr mag/cell
     absolute magnetization    =    10.01 Bohr mag/cell

     iteration #  8     ecut=    48.00 Ry     beta= 0.50
     Davidson diagonalization with overlap
     ethr =  3.32E-06,  avg # of iterations =  5.5

     negative rho (up, down):  3.201E-03 3.789E-03

     total cpu time spent up to now is      322.3 secs

     total energy              =   -1133.82811401 Ry
     estimated scf accuracy    <       0.00071297 Ry

     total magnetization       =    10.00 Bohr mag/cell
     absolute magnetization    =    10.01 Bohr mag/cell

     iteration #  9     ecut=    48.00 Ry     beta= 0.50
     Davidson diagonalization with overlap
     ethr =  4.57E-07,  avg # of iterations =  5.2

     negative rho (up, down):  3.144E-03 3.779E-03

     total cpu time spent up to now is      356.1 secs

     total energy              =   -1133.82828054 Ry
     estimated scf accuracy    <       0.00010003 Ry

     total magnetization       =    10.00 Bohr mag/cell
     absolute magnetization    =    10.01 Bohr mag/cell

     iteration # 10     ecut=    48.00 Ry     beta= 0.50
     Davidson diagonalization with overlap
     ethr =  6.41E-08,  avg # of iterations =  3.5

     negative rho (up, down):  3.129E-03 3.790E-03

     total cpu time spent up to now is      393.9 secs

     total energy              =   -1133.82833722 Ry
     estimated scf accuracy    <       0.00001617 Ry

     total magnetization       =    10.00 Bohr mag/cell
     absolute magnetization    =    10.01 Bohr mag/cell

     iteration # 11     ecut=    48.00 Ry     beta= 0.50
     Davidson diagonalization with overlap
     ethr =  1.04E-08,  avg # of iterations =  4.7

     negative rho (up, down):  3.121E-03 3.797E-03

     total cpu time spent up to now is      429.5 secs

     total energy              =   -1133.82835218 Ry
     estimated scf accuracy    <       0.00000332 Ry

     total magnetization       =    10.00 Bohr mag/cell
     absolute magnetization    =    10.01 Bohr mag/cell

     iteration # 12     ecut=    48.00 Ry     beta= 0.50
     Davidson diagonalization with overlap
     ethr =  2.13E-09,  avg # of iterations =  4.1

     negative rho (up, down):  3.117E-03 3.806E-03

     total cpu time spent up to now is      463.6 secs

     total energy              =   -1133.82835651 Ry
     estimated scf accuracy    <       0.00000196 Ry

     total magnetization       =    10.00 Bohr mag/cell
     absolute magnetization    =    10.01 Bohr mag/cell

     iteration # 13     ecut=    48.00 Ry     beta= 0.50
     Davidson diagonalization with overlap
     ethr =  1.26E-09,  avg # of iterations =  4.5

     negative rho (up, down):  3.115E-03 3.809E-03

     total cpu time spent up to now is      496.0 secs

     total energy              =   -1133.82835837 Ry
     estimated scf accuracy    <       0.00000026 Ry

     total magnetization       =    10.00 Bohr mag/cell
     absolute magnetization    =    10.01 Bohr mag/cell

     iteration # 14     ecut=    48.00 Ry     beta= 0.50
     Davidson diagonalization with overlap
     ethr =  1.67E-10,  avg # of iterations =  4.5

     negative rho (up, down):  3.114E-03 3.809E-03
 
     Magnetic moment per site:
     atom:    1    charge:    0.8806    magn:    0.0004    constr:    0.0000
     atom:    2    charge:    0.8801    magn:    0.0008    constr:    0.0000
     atom:    3    charge:    0.8802    magn:    0.0001    constr:    0.0000
     atom:    4    charge:    0.8803    magn:    0.0001    constr:    0.0000
     atom:    5    charge:    0.8800    magn:    0.0001    constr:    0.0000
     atom:    6    charge:    0.8805    magn:    0.0001    constr:    0.0000
     atom:    7    charge:    2.8610    magn:    0.0004    constr:    0.0000
     atom:    8    charge:    2.8610    magn:    0.0064    constr:    0.0000
     atom:    9    charge:    2.8609    magn:    0.0003    constr:    0.0000
     atom:   10    charge:    2.8609    magn:    0.0002    constr:    0.0000
     atom:   11    charge:    2.8604    magn:    0.0047    constr:    0.0000
     atom:   12    charge:    2.8609    magn:    0.0013    constr:    0.0000
     atom:   13    charge:    2.8596    magn:    0.0040    constr:    0.0000
     atom:   14    charge:    2.8597    magn:    0.0009    constr:    0.0000
     atom:   15    charge:    2.8600    magn:    0.0000    constr:    0.0000
     atom:   16    charge:    0.8807    magn:   -0.0000    constr:    0.0000
     atom:   17    charge:    0.8798    magn:    0.0008    constr:    0.0000
     atom:   18    charge:    0.8802    magn:    0.0001    constr:    0.0000
     atom:   19    charge:    0.8794    magn:    0.0001    constr:    0.0000
     atom:   20    charge:    0.8800    magn:    0.0004    constr:    0.0000
     atom:   21    charge:    0.8805    magn:   -0.0000    constr:    0.0000
     atom:   22    charge:    2.8609    magn:    0.0040    constr:    0.0000
     atom:   23    charge:    0.8804    magn:    0.0002    constr:    0.0000
     atom:   24    charge:    0.8788    magn:    0.0001    constr:    0.0000
     atom:   25    charge:    0.8799    magn:    0.0001    constr:    0.0000
     atom:   26    charge:    2.8598    magn:    0.0013    constr:    0.0000
     atom:   27    charge:    2.8599    magn:    0.0065    constr:    0.0000
     atom:   28    charge:    2.8597    magn:    0.0007    constr:    0.0000
     atom:   29    charge:    2.8596    magn:    0.0007    constr:    0.0000
     atom:   30    charge:    2.8596    magn:    0.0003    constr:    0.0000
     atom:   31    charge:    2.8596    magn:    0.0002    constr:    0.0000
     atom:   32    charge:    0.8802    magn:    0.0001    constr:    0.0000
     atom:   33    charge:   12.5075    magn:    4.2281    constr:    0.0000
     atom:   34    charge:   12.5074    magn:    4.2281    constr:    0.0000

     total cpu time spent up to now is      530.4 secs

     End of self-consistent calculation

 ------ SPIN UP ------------


          k = 0.1667 0.2887 0.0000 ( 59267 PWs)   bands (ev):

   -72.8821 -72.8736 -44.4376 -44.3539 -44.2811 -44.2729 -44.2549 -44.2466
   -21.2473 -20.6606 -20.6567 -20.1050 -20.0969 -19.5869 -19.5844 -19.1000
   -18.6979 -18.6921 -18.4583 -18.4508 -18.1956 -18.0858 -18.0788 -17.8502
   -12.4845 -12.2076 -12.2015 -11.8214 -11.8183 -11.6592 -11.1919 -11.1899
   -10.3925 -10.3682 -10.1184 -10.1154  -9.5896  -9.5886  -8.8373  -8.8265
    -8.8230  -8.7662  -8.7630  -8.5971  -8.1977  -8.0540  -8.0141  -7.8300
    -7.8275  -7.4396  -7.4372  -7.2830  -7.2585  -7.2083  -7.2075  -6.9620
    -6.9551  -6.5685  -6.5363  -6.1544  -6.1535  -5.8722  -5.4192  -5.2973
    -5.2738  -5.2008  -4.9127  -4.9010  -4.5083  -4.3578  -4.3397  -3.9801
    -2.8902  -2.0486  -2.0270  -1.8393  -1.6377  -1.5820  -1.4786  -1.4655
    -1.3699  -1.3617  -1.3130  -0.7300   0.6760   0.8539   1.0519   1.2022
     1.2986   1.4828   1.5201   1.5746   1.6095   1.7976

          k = 0.1667-0.4811 0.0000 ( 59291 PWs)   bands (ev):

   -72.8821 -72.8736 -44.4376 -44.3539 -44.2811 -44.2729 -44.2549 -44.2466
   -21.1169 -20.9125 -20.7234 -20.1613 -19.8048 -19.4671 -19.3175 -19.1752
   -19.0149 -18.7792 -18.6421 -18.5448 -18.1498 -18.0898 -17.9227 -17.7245
   -12.3486 -12.1137 -12.0452 -11.9068 -11.6810 -11.6595 -11.5531 -10.9427
   -10.8906 -10.6240 -10.5236  -9.8609  -9.6938  -9.3367  -9.1115  -8.6685
    -8.6234  -8.5537  -8.3896  -8.3677  -8.1621  -8.1230  -8.0633  -8.0507
    -7.6893  -7.6239  -7.4947  -7.4749  -7.3565  -7.1714  -7.0683  -6.8610
    -6.6227  -6.3895  -6.1786  -6.1584  -5.9725  -5.9298  -5.7843  -5.7457
    -5.4521  -5.3975  -5.2099  -5.0423  -4.4457  -4.3483  -4.0895  -3.7679
    -2.8874  -2.0483  -2.0276  -1.8358  -1.6360  -1.5819  -1.4811  -1.4659
    -1.3698  -1.3614  -1.3150  -0.7344   0.5895   0.8432   1.0718   1.1154
     1.2447   1.2735   1.3978   1.8414   1.9285   2.1111

          k = 0.1667-0.0962 0.0000 ( 59226 PWs)   bands (ev):

   -72.8821 -72.8736 -44.4376 -44.3539 -44.2811 -44.2728 -44.2549 -44.2466
   -21.3138 -20.5361 -20.3475 -20.3378 -19.9906 -19.9796 -19.8064 -18.7317
   -18.7210 -18.3764 -18.3682 -18.3552 -18.2703 -18.2619 -18.0793 -18.0707
   -12.5085 -12.5021 -12.4086 -11.5827 -11.5758 -11.4277 -11.4204 -10.9271
   -10.9238  -9.9304  -9.9261  -9.6762  -9.3754  -9.3729  -9.2311  -9.2283
    -9.0428  -9.0408  -8.9240  -8.3248  -8.3215  -7.9022  -7.8999  -7.8813
    -7.8456  -7.7709  -7.6114  -7.5805  -7.1380  -7.0897  -6.9598  -6.8891
    -6.8855  -6.8514  -6.5327  -6.5281  -6.2581  -5.3541  -5.3143  -5.1439
    -5.0659  -4.8098  -4.8007  -4.7488  -4.6158  -4.6077  -4.3560  -4.3296
    -2.8933  -2.0489  -2.0264  -1.8428  -1.6402  -1.5821  -1.4763  -1.4650
    -1.3698  -1.3621  -1.3114  -0.7254   0.7820   0.8442   1.0036   1.2113
     1.2599   1.3489   1.5835   1.6026   1.7308   1.9482

          k =-0.5000-0.8660 0.0000 ( 59292 PWs)   bands (ev):

   -72.8821 -72.8736 -44.4376 -44.3539 -44.2811 -44.2729 -44.2549 -44.2466
   -21.0498 -21.0474 -20.4719 -20.4625 -19.4298 -19.4195 -19.4143 -19.4085
   -18.9924 -18.9899 -18.3259 -18.3207 -18.3166 -18.3151 -17.7961 -17.7873
   -12.0714 -12.0658 -12.0633 -12.0621 -11.8804 -11.8719 -11.3295 -11.3281
   -10.2366 -10.2308 -10.1368 -10.1334 -10.1300 -10.1258  -8.5911  -8.5503
    -8.5474  -8.5452  -8.5445  -8.5385  -7.8657  -7.8640  -7.8590  -7.8573
    -7.8257  -7.8197  -7.7838  -7.7515  -7.4901  -7.4874  -6.6136  -6.6067
    -6.3625  -6.3320  -6.3058  -6.2929  -6.1901  -6.1887  -5.7121  -5.6968
    -5.5459  -5.5426  -4.7298  -4.7211  -4.6960  -4.6913  -3.8914  -3.8652
    -2.8755  -2.0463  -2.0271  -1.8373  -1.6383  -1.5814  -1.4813  -1.4659
    -1.3751  -1.3654  -1.3180  -0.8525   0.7723   0.9988   1.1201   1.1581
     1.3683   1.5703   1.5865   1.6066   1.7358   1.7559

          k =-0.1667 0.2887 0.0000 ( 59267 PWs)   bands (ev):

   -72.8821 -72.8736 -44.4376 -44.3539 -44.2811 -44.2729 -44.2549 -44.2466
   -21.2473 -20.6607 -20.6567 -20.1050 -20.0969 -19.5870 -19.5844 -19.1000
   -18.6979 -18.6921 -18.4583 -18.4508 -18.1956 -18.0858 -18.0788 -17.8502
   -12.4844 -12.2076 -12.2015 -11.8214 -11.8184 -11.6592 -11.1919 -11.1899
   -10.3925 -10.3682 -10.1184 -10.1154  -9.5896  -9.5886  -8.8373  -8.8265
    -8.8230  -8.7663  -8.7630  -8.5971  -8.1977  -8.0540  -8.0141  -7.8300
    -7.8275  -7.4396  -7.4372  -7.2830  -7.2586  -7.2082  -7.2074  -6.9620
    -6.9552  -6.5685  -6.5363  -6.1544  -6.1535  -5.8722  -5.4192  -5.2973
    -5.2738  -5.2007  -4.9127  -4.9010  -4.5083  -4.3578  -4.3397  -3.9801
    -2.8902  -2.0486  -2.0270  -1.8393  -1.6377  -1.5820  -1.4786  -1.4655
    -1.3699  -1.3617  -1.3130  -0.7300   0.6760   0.8539   1.0519   1.2023
     1.2985   1.4828   1.5201   1.5746   1.6095   1.7976

          k = 0.3333 0.0000 0.0000 ( 59267 PWs)   bands (ev):

   -72.8821 -72.8736 -44.4376 -44.3539 -44.2811 -44.2728 -44.2549 -44.2466
   -21.2469 -20.6860 -20.6312 -20.1058 -20.0945 -19.6137 -19.5597 -19.1021
   -18.7140 -18.6708 -18.4617 -18.4494 -18.1908 -18.1089 -18.0626 -17.8494
   -12.4842 -12.2089 -12.2000 -11.8299 -11.8122 -11.6569 -11.2105 -11.1721
   -10.3916 -10.3680 -10.1310 -10.1031  -9.5959  -9.5811  -8.8453  -8.8237
    -8.8152  -8.7886  -8.7421  -8.5979  -8.1995  -8.1022  -7.9654  -7.8290
    -7.8264  -7.4452  -7.4308  -7.2939  -7.2422  -7.2184  -7.1971  -6.9646
    -6.9541  -6.6185  -6.4936  -6.1572  -6.1498  -5.8787  -5.4190  -5.3114
    -5.2490  -5.2010  -4.9212  -4.8950  -4.4995  -4.3845  -4.3257  -3.9785
    -2.8826  -2.0470  -2.0264  -1.8404  -1.6401  -1.5817  -1.4784  -1.4654
    -1.3733  -1.3644  -1.3149  -0.8123   0.8176   0.9921   1.0777   1.2468
     1.3221   1.4992   1.5169   1.5564   1.5888   1.8320

          k =-0.1667-0.4811 0.0000 ( 59291 PWs)   bands (ev):

   -72.8821 -72.8736 -44.4376 -44.3539 -44.2811 -44.2729 -44.2549 -44.2466
   -21.1169 -20.9125 -20.7234 -20.1614 -19.8048 -19.4671 -19.3175 -19.1752
   -19.0149 -18.7792 -18.6421 -18.5448 -18.1498 -18.0898 -17.9227 -17.7245
   -12.3486 -12.1137 -12.0452 -11.9068 -11.6810 -11.6595 -11.5531 -10.9427
   -10.8907 -10.6240 -10.5236  -9.8608  -9.6938  -9.3367  -9.1115  -8.6685
    -8.6233  -8.5537  -8.3895  -8.3677  -8.1621  -8.1230  -8.0633  -8.0508
    -7.6893  -7.6240  -7.4947  -7.4749  -7.3565  -7.1714  -7.0683  -6.8610
    -6.6227  -6.3895  -6.1786  -6.1585  -5.9725  -5.9298  -5.7843  -5.7457
    -5.4521  -5.3975  -5.2099  -5.0423  -4.4456  -4.3484  -4.0895  -3.7679
    -2.8874  -2.0483  -2.0276  -1.8358  -1.6360  -1.5819  -1.4811  -1.4659
    -1.3698  -1.3614  -1.3150  -0.7344   0.5895   0.8432   1.0718   1.1154
     1.2447   1.2735   1.3978   1.8414   1.9286   2.1111

          k = 0.5000-0.0962 0.0000 ( 59291 PWs)   bands (ev):

   -72.8821 -72.8736 -44.4376 -44.3539 -44.2811 -44.2728 -44.2549 -44.2466
   -21.1142 -20.9201 -20.7185 -20.1594 -19.8049 -19.4692 -19.3232 -19.1702
   -19.0159 -18.7803 -18.6315 -18.5510 -18.1372 -18.1067 -17.9198 -17.7241
   -12.3476 -12.1142 -12.0431 -11.9109 -11.6930 -11.6448 -11.5555 -10.9429
   -10.8885 -10.6223 -10.5261  -9.8585  -9.6944  -9.3377  -9.1109  -8.6581
    -8.6240  -8.5516  -8.4003  -8.3918  -8.1601  -8.1034  -8.0765  -8.0389
    -7.6852  -7.6245  -7.4938  -7.4760  -7.3502  -7.1729  -7.0692  -6.8603
    -6.6231  -6.3990  -6.1947  -6.1579  -5.9572  -5.9291  -5.7835  -5.7486
    -5.4531  -5.3982  -5.1865  -5.0566  -4.4236  -4.3764  -4.0863  -3.7671
    -2.8756  -2.0463  -2.0271  -1.8373  -1.6388  -1.5814  -1.4813  -1.4660
    -1.3751  -1.3654  -1.3181  -0.8523   0.7595   0.9945   1.1054   1.1586
     1.3010   1.3172   1.5561   1.7539   1.8421   1.9221

          k =-0.3333-0.3849 0.0000 ( 59291 PWs)   bands (ev):

   -72.8821 -72.8736 -44.4376 -44.3539 -44.2811 -44.2729 -44.2549 -44.2466
   -21.1151 -20.9175 -20.7204 -20.1592 -19.8070 -19.4671 -19.3181 -19.1739
   -19.0189 -18.7785 -18.6330 -18.5501 -18.1399 -18.1035 -17.9200 -17.7243
   -12.3481 -12.1123 -12.0454 -11.9099 -11.6819 -11.6573 -11.5544 -10.9428
   -10.8881 -10.6216 -10.5270  -9.8593  -9.6945  -9.3371  -9.1118  -8.6614
    -8.6226  -8.5537  -8.3916  -8.3864  -8.1616  -8.1109  -8.0633  -8.0533
    -7.6855  -7.6229  -7.5005  -7.4698  -7.3489  -7.1730  -7.0697  -6.8685
    -6.6211  -6.3907  -6.1790  -6.1601  -5.9698  -5.9280  -5.7836  -5.7574
    -5.4530  -5.3928  -5.1873  -5.0572  -4.4262  -4.3737  -4.0857  -3.7675
    -2.8795  -2.0472  -2.0274  -1.8368  -1.6375  -1.5815  -1.4811  -1.4661
    -1.3733  -1.3641  -1.3170  -0.8163   0.6994   0.9585   1.1017   1.1460
     1.2328   1.3811   1.4340   1.8062   1.9038   1.9192

          k = 0.5000 0.0962 0.0000 ( 59291 PWs)   bands (ev):

   -72.8821 -72.8736 -44.4376 -44.3539 -44.2811 -44.2728 -44.2549 -44.2466
   -21.1142 -20.9201 -20.7185 -20.1594 -19.8049 -19.4692 -19.3232 -19.1702
   -19.0159 -18.7803 -18.6315 -18.5510 -18.1372 -18.1067 -17.9198 -17.7241
   -12.3476 -12.1142 -12.0431 -11.9109 -11.6930 -11.6448 -11.5555 -10.9429
   -10.8885 -10.6223 -10.5261  -9.8585  -9.6945  -9.3377  -9.1109  -8.6581
    -8.6240  -8.5516  -8.4003  -8.3918  -8.1601  -8.1034  -8.0765  -8.0389
    -7.6853  -7.6244  -7.4938  -7.4761  -7.3502  -7.1729  -7.0691  -6.8603
    -6.6230  -6.3989  -6.1947  -6.1578  -5.9572  -5.9290  -5.7836  -5.7486
    -5.4532  -5.3982  -5.1865  -5.0566  -4.4236  -4.3764  -4.0863  -3.7671
    -2.8756  -2.0463  -2.0271  -1.8373  -1.6388  -1.5814  -1.4813  -1.4660
    -1.3751  -1.3654  -1.3181  -0.8523   0.7595   0.9945   1.1054   1.1586
     1.3010   1.3171   1.5560   1.7539   1.8421   1.9220

          k =-0.3333 0.3849 0.0000 ( 59291 PWs)   bands (ev):

   -72.8821 -72.8736 -44.4376 -44.3539 -44.2811 -44.2729 -44.2549 -44.2466
   -21.1151 -20.9175 -20.7204 -20.1592 -19.8070 -19.4672 -19.3181 -19.1739
   -19.0189 -18.7785 -18.6330 -18.5501 -18.1399 -18.1035 -17.9200 -17.7243
   -12.3481 -12.1123 -12.0455 -11.9099 -11.6820 -11.6573 -11.5544 -10.9428
   -10.8881 -10.6216 -10.5270  -9.8593  -9.6945  -9.3371  -9.1118  -8.6614
    -8.6227  -8.5537  -8.3917  -8.3864  -8.1616  -8.1109  -8.0633  -8.0533
    -7.6854  -7.6229  -7.5005  -7.4698  -7.3489  -7.1729  -7.0698  -6.8685
    -6.6211  -6.3907  -6.1790  -6.1602  -5.9698  -5.9281  -5.7836  -5.7574
    -5.4529  -5.3928  -5.1873  -5.0572  -4.4263  -4.3737  -4.0856  -3.7675
    -2.8795  -2.0472  -2.0274  -1.8368  -1.6375  -1.5815  -1.4811  -1.4661
    -1.3733  -1.3641  -1.3170  -0.8163   0.6994   0.9585   1.1017   1.1460
     1.2328   1.3812   1.4340   1.8064   1.9040   1.9191

          k =-0.1667-0.0962 0.0000 ( 59226 PWs)   bands (ev):

   -72.8821 -72.8736 -44.4376 -44.3539 -44.2811 -44.2728 -44.2549 -44.2466
   -21.3138 -20.5361 -20.3475 -20.3378 -19.9906 -19.9796 -19.8064 -18.7317
   -18.7210 -18.3764 -18.3682 -18.3552 -18.2703 -18.2619 -18.0793 -18.0707
   -12.5085 -12.5021 -12.4086 -11.5827 -11.5758 -11.4277 -11.4204 -10.9271
   -10.9238  -9.9304  -9.9261  -9.6762  -9.3754  -9.3728  -9.2311  -9.2284
    -9.0428  -9.0408  -8.9240  -8.3249  -8.3215  -7.9022  -7.8999  -7.8813
    -7.8456  -7.7710  -7.6114  -7.5805  -7.1380  -7.0897  -6.9599  -6.8891
    -6.8854  -6.8514  -6.5327  -6.5280  -6.2582  -5.3541  -5.3143  -5.1438
    -5.0660  -4.8098  -4.8007  -4.7488  -4.6158  -4.6077  -4.3560  -4.3296
    -2.8933  -2.0489  -2.0264  -1.8428  -1.6402  -1.5821  -1.4763  -1.4650
    -1.3698  -1.3621  -1.3114  -0.7254   0.7820   0.8442   1.0036   1.2113
     1.2599   1.3490   1.5835   1.6026   1.7308   1.9480

          k =-0.0000-0.1925 0.0000 ( 59226 PWs)   bands (ev):

   -72.8821 -72.8736 -44.4376 -44.3539 -44.2811 -44.2728 -44.2549 -44.2466
   -21.3139 -20.5311 -20.3541 -20.3402 -19.9875 -19.9752 -19.8099 -18.7309
   -18.7181 -18.3940 -18.3733 -18.3527 -18.2553 -18.2552 -18.0833 -18.0717
   -12.5098 -12.5009 -12.4085 -11.5846 -11.5756 -11.4268 -11.4181 -10.9285
   -10.9242  -9.9294  -9.9270  -9.6767  -9.3760  -9.3711  -9.2306  -9.2293
    -9.0428  -9.0412  -8.9247  -8.3243  -8.3211  -7.9012  -7.8992  -7.8644
    -7.8440  -7.7727  -7.6332  -7.5926  -7.1132  -7.0876  -6.9585  -6.8908
    -6.8854  -6.8630  -6.5329  -6.5269  -6.2588  -5.3442  -5.3160  -5.1441
    -5.0657  -4.8366  -4.8078  -4.7523  -4.5957  -4.5893  -4.3576  -4.3372
    -2.8970  -2.0498  -2.0267  -1.8422  -1.6390  -1.5823  -1.4767  -1.4648
    -1.3682  -1.3607  -1.3106  -0.6773   0.6687   0.8041   0.9936   1.1829
     1.2482   1.3796   1.5798   1.6191   1.6875   2.0029

          k = 0.5000-0.8660 0.0000 ( 59292 PWs)   bands (ev):

   -72.8821 -72.8736 -44.4376 -44.3539 -44.2811 -44.2729 -44.2549 -44.2466
   -21.0499 -21.0474 -20.4720 -20.4625 -19.4298 -19.4194 -19.4143 -19.4085
   -18.9924 -18.9899 -18.3259 -18.3206 -18.3166 -18.3151 -17.7961 -17.7873
   -12.0714 -12.0658 -12.0634 -12.0620 -11.8803 -11.8719 -11.3295 -11.3280
   -10.2367 -10.2308 -10.1368 -10.1334 -10.1300 -10.1258  -8.5911  -8.5503
    -8.5475  -8.5452  -8.5445  -8.5384  -7.8657  -7.8640  -7.8590  -7.8573
    -7.8258  -7.8198  -7.7838  -7.7515  -7.4902  -7.4874  -6.6136  -6.6066
    -6.3625  -6.3320  -6.3058  -6.2929  -6.1901  -6.1885  -5.7121  -5.6968
    -5.5460  -5.5427  -4.7298  -4.7210  -4.6960  -4.6913  -3.8915  -3.8652
    -2.8755  -2.0463  -2.0271  -1.8373  -1.6383  -1.5814  -1.4813  -1.4659
    -1.3751  -1.3654  -1.3180  -0.8525   0.7723   0.9989   1.1201   1.1581
     1.3683   1.5703   1.5864   1.6066   1.7359   1.7560

          k =-1.0000 0.0000 0.0000 ( 59292 PWs)   bands (ev):

   -72.8821 -72.8736 -44.4376 -44.3539 -44.2811 -44.2729 -44.2549 -44.2466
   -21.0747 -21.0198 -20.4764 -20.4628 -19.4245 -19.4211 -19.4202 -19.4002
   -19.0132 -18.9706 -18.3713 -18.3357 -18.2918 -18.2805 -17.7983 -17.7868
   -12.1024 -12.0815 -12.0396 -12.0349 -11.8822 -11.8709 -11.3509 -11.3090
   -10.2423 -10.2397 -10.1327 -10.1314 -10.1249 -10.1239  -8.6323  -8.5750
    -8.5581  -8.5280  -8.5173  -8.4912  -7.8755  -7.8696  -7.8609  -7.8604
    -7.8168  -7.8141  -7.7900  -7.7590  -7.5140  -7.4658  -6.6129  -6.6046
    -6.3562  -6.3295  -6.3085  -6.2796  -6.2088  -6.1726  -5.7379  -5.6777
    -5.5668  -5.5222  -4.7947  -4.7536  -4.6490  -4.6441  -3.8888  -3.8700
    -2.8913  -2.0487  -2.0276  -1.8353  -1.6353  -1.5820  -1.4813  -1.4657
    -1.3681  -1.3601  -1.3140  -0.6873   0.5470   0.7613   1.0639   1.1148
     1.1897   1.5484   1.5768   1.5999   1.6416   1.9376

 ------ SPIN DOWN ----------


          k = 0.1667 0.2887 0.0000 ( 59267 PWs)   bands (ev):

   -68.6865 -68.6767 -40.3757 -40.2767 -40.1011 -40.0912 -40.0551 -40.0452
   -21.2436 -20.6567 -20.6533 -20.1010 -20.0936 -19.5835 -19.5806 -19.0962
   -18.6931 -18.6884 -18.4542 -18.4473 -18.1909 -18.0819 -18.0757 -17.8463
   -12.4822 -12.2049 -12.1994 -11.8191 -11.8163 -11.6571 -11.1894 -11.1876
   -10.3897 -10.3658 -10.1153 -10.1131  -9.5869  -9.5865  -8.8248  -8.8206
    -8.8166  -8.7640  -8.7606  -8.5948  -8.1954  -8.0305  -8.0046  -7.8275
    -7.8253  -7.4361  -7.4344  -7.2637  -7.2459  -7.2061  -7.2049  -6.9594
    -6.9530  -6.5477  -6.5282  -6.1517  -6.1511  -5.8564  -5.4162  -5.2745
    -5.2624  -5.1982  -4.8981  -4.8887  -4.4910  -4.3426  -4.3314  -3.9665
    -1.4526   0.3882   0.7958   0.9944   1.1228   1.1891   1.2698   1.3500
     1.4210   1.4912   1.5537   1.6031   1.6366   1.7427   1.9030   1.9732
     2.0432   2.0976   2.1464   2.1847   2.2953   2.3423

          k = 0.1667-0.4811 0.0000 ( 59291 PWs)   bands (ev):

   -68.6865 -68.6767 -40.3757 -40.2767 -40.1010 -40.0912 -40.0551 -40.0452
   -21.1129 -20.9094 -20.7196 -20.1575 -19.8012 -19.4633 -19.3138 -19.1713
   -19.0111 -18.7755 -18.6370 -18.5417 -18.1441 -18.0876 -17.9186 -17.7204
   -12.3463 -12.1114 -12.0430 -11.9047 -11.6790 -11.6569 -11.5509 -10.9400
   -10.8880 -10.6213 -10.5213  -9.8579  -9.6914  -9.3339  -9.1090  -8.6457
    -8.6209  -8.5508  -8.3874  -8.3560  -8.1597  -8.1064  -8.0610  -8.0484
    -7.6865  -7.6215  -7.4922  -7.4727  -7.3393  -7.1685  -7.0660  -6.8455
    -6.6196  -6.3744  -6.1625  -6.1559  -5.9577  -5.9267  -5.7817  -5.7308
    -5.4495  -5.3832  -5.1881  -5.0332  -4.4250  -4.3420  -4.0761  -3.7546
    -1.4434   0.3759   0.7913   0.9574   1.0493   1.1345   1.2074   1.2828
     1.3665   1.4164   1.5722   1.7324   1.7964   1.8779   1.9055   2.0740
     2.1165   2.1396   2.1656   2.2236   2.3084   2.3405

          k = 0.1667-0.0962 0.0000 ( 59226 PWs)   bands (ev):

   -68.6865 -68.6767 -40.3757 -40.2767 -40.1011 -40.0912 -40.0551 -40.0452
   -21.3101 -20.5320 -20.3439 -20.3347 -19.9861 -19.9763 -19.8032 -18.7268
   -18.7173 -18.3716 -18.3645 -18.3516 -18.2659 -18.2581 -18.0755 -18.0675
   -12.5059 -12.5001 -12.4063 -11.5802 -11.5739 -11.4250 -11.4183 -10.9245
   -10.9215  -9.9278  -9.9240  -9.6735  -9.3730  -9.3705  -9.2280  -9.2257
    -9.0405  -9.0385  -8.9059  -8.3217  -8.3186  -7.8996  -7.8974  -7.8600
    -7.8418  -7.7687  -7.5952  -7.5705  -7.1135  -7.0792  -6.9573  -6.8866
    -6.8834  -6.8412  -6.5300  -6.5258  -6.2557  -5.3308  -5.3028  -5.1411
    -5.0632  -4.7914  -4.7845  -4.7375  -4.6020  -4.5948  -4.3404  -4.3205
    -1.4618   0.4024   0.8015   0.9919   1.0857   1.1521   1.2119   1.3202
     1.4692   1.5367   1.6054   1.6917   1.7801   1.8609   1.8911   1.9367
     1.9808   2.0560   2.1296   2.1406   2.2495   2.3129

          k =-0.5000-0.8660 0.0000 ( 59292 PWs)   bands (ev):

   -68.6865 -68.6767 -40.3757 -40.2767 -40.1011 -40.0912 -40.0551 -40.0452
   -21.0460 -21.0438 -20.4682 -20.4593 -19.4245 -19.4155 -19.4110 -19.4053
   -18.9888 -18.9862 -18.3201 -18.3178 -18.3150 -18.3093 -17.7918 -17.7837
   -12.0675 -12.0643 -12.0620 -12.0591 -11.8779 -11.8703 -11.3270 -11.3258
   -10.2338 -10.2288 -10.1335 -10.1307 -10.1274 -10.1236  -8.5635  -8.5449
    -8.5443  -8.5433  -8.5419  -8.5320  -7.8630  -7.8613  -7.8570  -7.8552
    -7.8221  -7.8165  -7.7667  -7.7411  -7.4884  -7.4847  -6.6105  -6.6045
    -6.3333  -6.3130  -6.2955  -6.2839  -6.1878  -6.1853  -5.6945  -5.6877
    -5.5435  -5.5399  -4.7081  -4.6987  -4.6883  -4.6855  -3.8749  -3.8554
    -1.4202   0.1396   0.7957   1.0448   1.0693   1.1375   1.2838   1.4211
     1.5174   1.5367   1.5898   1.6970   1.7611   1.8733   1.9231   1.9516
     1.9851   2.0461   2.1619   2.2223   2.3151   2.3458

          k =-0.1667 0.2887 0.0000 ( 59267 PWs)   bands (ev):

   -68.6865 -68.6767 -40.3757 -40.2767 -40.1011 -40.0912 -40.0551 -40.0452
   -21.2436 -20.6568 -20.6533 -20.1010 -20.0936 -19.5835 -19.5806 -19.0962
   -18.6931 -18.6884 -18.4542 -18.4473 -18.1909 -18.0820 -18.0757 -17.8463
   -12.4822 -12.2049 -12.1994 -11.8191 -11.8163 -11.6571 -11.1894 -11.1876
   -10.3897 -10.3658 -10.1153 -10.1131  -9.5869  -9.5864  -8.8247  -8.8205
    -8.8166  -8.7640  -8.7606  -8.5947  -8.1955  -8.0305  -8.0046  -7.8275
    -7.8252  -7.4361  -7.4345  -7.2637  -7.2459  -7.2061  -7.2048  -6.9595
    -6.9530  -6.5477  -6.5282  -6.1517  -6.1511  -5.8564  -5.4163  -5.2745
    -5.2624  -5.1981  -4.8981  -4.8887  -4.4911  -4.3426  -4.3314  -3.9665
    -1.4526   0.3882   0.7958   0.9944   1.1228   1.1892   1.2697   1.3501
     1.4210   1.4912   1.5537   1.6030   1.6366   1.7427   1.9030   1.9732
     2.0431   2.0976   2.1463   2.1849   2.2958   2.3426

          k = 0.3333 0.0000 0.0000 ( 59267 PWs)   bands (ev):

   -68.6865 -68.6767 -40.3757 -40.2767 -40.1011 -40.0912 -40.0551 -40.0452
   -21.2432 -20.6806 -20.6294 -20.1022 -20.0909 -19.6081 -19.5578 -19.0980
   -18.7081 -18.6691 -18.4575 -18.4455 -18.1868 -18.1027 -18.0608 -17.8455
   -12.4819 -12.2066 -12.1975 -11.8275 -11.8101 -11.6550 -11.2069 -11.1706
   -10.3890 -10.3655 -10.1274 -10.1014  -9.5931  -9.5792  -8.8318  -8.8202
    -8.8079  -8.7851  -8.7409  -8.5955  -8.1970  -8.0734  -7.9616  -7.8266
    -7.8243  -7.4415  -7.4285  -7.2727  -7.2328  -7.2153  -7.1956  -6.9620
    -6.9518  -6.5915  -6.4895  -6.1544  -6.1477  -5.8610  -5.4161  -5.2909
    -5.2385  -5.1984  -4.9048  -4.8839  -4.4846  -4.3670  -4.3160  -3.9655
    -1.4379   0.2197   0.8410   0.9973   1.0963   1.1610   1.2912   1.4376
     1.4769   1.4888   1.5529   1.7091   1.7685   1.8440   1.9026   1.9353
     2.0125   2.0854   2.1302   2.1908   2.3022   2.3272

          k =-0.1667-0.4811 0.0000 ( 59291 PWs)   bands (ev):

   -68.6865 -68.6767 -40.3757 -40.2767 -40.1010 -40.0912 -40.0551 -40.0452
   -21.1129 -20.9094 -20.7196 -20.1575 -19.8012 -19.4633 -19.3138 -19.1713
   -19.0111 -18.7755 -18.6370 -18.5417 -18.1441 -18.0876 -17.9186 -17.7204
   -12.3463 -12.1113 -12.0430 -11.9047 -11.6789 -11.6570 -11.5509 -10.9400
   -10.8880 -10.6214 -10.5213  -9.8579  -9.6914  -9.3339  -9.1091  -8.6457
    -8.6208  -8.5508  -8.3873  -8.3560  -8.1596  -8.1064  -8.0611  -8.0485
    -7.6865  -7.6216  -7.4922  -7.4727  -7.3393  -7.1685  -7.0660  -6.8455
    -6.6196  -6.3744  -6.1626  -6.1559  -5.9577  -5.9267  -5.7816  -5.7308
    -5.4496  -5.3832  -5.1881  -5.0332  -4.4250  -4.3420  -4.0761  -3.7546
    -1.4434   0.3759   0.7913   0.9574   1.0493   1.1345   1.2074   1.2828
     1.3664   1.4164   1.5722   1.7324   1.7964   1.8780   1.9054   2.0744
     2.1166   2.1394   2.1656   2.2234   2.3083   2.3405

          k = 0.5000-0.0962 0.0000 ( 59291 PWs)   bands (ev):

   -68.6865 -68.6767 -40.3757 -40.2767 -40.1011 -40.0912 -40.0551 -40.0452
   -21.1105 -20.9161 -20.7154 -20.1559 -19.8012 -19.4652 -19.3188 -19.1670
   -19.0120 -18.7765 -18.6279 -18.5470 -18.1333 -18.1021 -17.9163 -17.7201
   -12.3453 -12.1119 -12.0411 -11.9084 -11.6903 -11.6433 -11.5530 -10.9403
   -10.8860 -10.6198 -10.5236  -9.8558  -9.6920  -9.3348  -9.1085  -8.6384
    -8.6213  -8.5489  -8.3916  -8.3774  -8.1579  -8.0925  -8.0730  -8.0377
    -7.6830  -7.6220  -7.4913  -7.4738  -7.3348  -7.1698  -7.0667  -6.8451
    -6.6199  -6.3802  -6.1747  -6.1554  -5.9470  -5.9261  -5.7810  -5.7328
    -5.4505  -5.3840  -5.1712  -5.0435  -4.4073  -4.3639  -4.0737  -3.7541
    -1.4203   0.1413   0.7964   1.0179   1.0609   1.1351   1.2030   1.2893
     1.4176   1.5916   1.6876   1.7995   1.8602   1.9129   1.9595   1.9944
     2.0315   2.1115   2.2015   2.2373   2.3035   2.3534

          k =-0.3333-0.3849 0.0000 ( 59291 PWs)   bands (ev):

   -68.6865 -68.6767 -40.3757 -40.2767 -40.1010 -40.0912 -40.0551 -40.0452
   -21.1113 -20.9137 -20.7170 -20.1557 -19.8030 -19.4634 -19.3143 -19.1701
   -19.0146 -18.7749 -18.6291 -18.5463 -18.1355 -18.0995 -17.9164 -17.7203
   -12.3458 -12.1100 -12.0433 -11.9074 -11.6799 -11.6549 -11.5520 -10.9402
   -10.8857 -10.6192 -10.5243  -9.8565  -9.6921  -9.3343  -9.1093  -8.6405
    -8.6202  -8.5507  -8.3887  -8.3698  -8.1593  -8.0978  -8.0610  -8.0508
    -7.6832  -7.6206  -7.4974  -7.4682  -7.3339  -7.1699  -7.0672  -6.8507
    -6.6181  -6.3751  -6.1634  -6.1571  -5.9554  -5.9252  -5.7811  -5.7392
    -5.4504  -5.3802  -5.1721  -5.0436  -4.4096  -4.3615  -4.0733  -3.7543
    -1.4282   0.2071   0.7834   1.0085   1.0593   1.1456   1.2139   1.2979
     1.3966   1.5091   1.6827   1.7754   1.8570   1.9043   1.9439   2.0092
     2.0611   2.0848   2.1452   2.2199   2.3166   2.3425

          k = 0.5000 0.0962 0.0000 ( 59291 PWs)   bands (ev):

   -68.6865 -68.6767 -40.3757 -40.2767 -40.1011 -40.0912 -40.0551 -40.0452
   -21.1105 -20.9161 -20.7154 -20.1559 -19.8012 -19.4652 -19.3188 -19.1670
   -19.0120 -18.7765 -18.6279 -18.5470 -18.1333 -18.1021 -17.9162 -17.7201
   -12.3453 -12.1119 -12.0411 -11.9084 -11.6902 -11.6433 -11.5530 -10.9403
   -10.8860 -10.6198 -10.5236  -9.8558  -9.6921  -9.3348  -9.1085  -8.6384
    -8.6213  -8.5490  -8.3916  -8.3774  -8.1579  -8.0925  -8.0730  -8.0376
    -7.6830  -7.6220  -7.4914  -7.4738  -7.3348  -7.1699  -7.0666  -6.8451
    -6.6198  -6.3802  -6.1747  -6.1554  -5.9470  -5.9261  -5.7810  -5.7328
    -5.4506  -5.3840  -5.1712  -5.0435  -4.4073  -4.3639  -4.0737  -3.7541
    -1.4203   0.1413   0.7964   1.0179   1.0609   1.1351   1.2030   1.2893
     1.4176   1.5917   1.6875   1.7995   1.8602   1.9129   1.9595   1.9941
     2.0314   2.1115   2.2015   2.2375   2.3037   2.3535

          k =-0.3333 0.3849 0.0000 ( 59291 PWs)   bands (ev):

   -68.6865 -68.6767 -40.3757 -40.2767 -40.1010 -40.0912 -40.0551 -40.0452
   -21.1113 -20.9137 -20.7170 -20.1557 -19.8030 -19.4634 -19.3143 -19.1701
   -19.0145 -18.7749 -18.6291 -18.5463 -18.1355 -18.0995 -17.9164 -17.7203
   -12.3458 -12.1100 -12.0433 -11.9074 -11.6799 -11.6550 -11.5520 -10.9402
   -10.8857 -10.6192 -10.5243  -9.8565  -9.6921  -9.3343  -9.1094  -8.6405
    -8.6203  -8.5506  -8.3887  -8.3698  -8.1593  -8.0978  -8.0610  -8.0508
    -7.6832  -7.6206  -7.4974  -7.4682  -7.3339  -7.1699  -7.0672  -6.8507
    -6.6182  -6.3751  -6.1634  -6.1571  -5.9554  -5.9253  -5.7811  -5.7392
    -5.4503  -5.3802  -5.1721  -5.0436  -4.4096  -4.3615  -4.0733  -3.7543
    -1.4282   0.2070   0.7834   1.0085   1.0593   1.1457   1.2139   1.2979
     1.3966   1.5091   1.6827   1.7754   1.8570   1.9043   1.9439   2.0092
     2.0610   2.0847   2.1451   2.2198   2.3170   2.3422

          k =-0.1667-0.0962 0.0000 ( 59226 PWs)   bands (ev):

   -68.6865 -68.6767 -40.3757 -40.2767 -40.1011 -40.0912 -40.0551 -40.0452
   -21.3101 -20.5320 -20.3439 -20.3347 -19.9861 -19.9763 -19.8032 -18.7268
   -18.7173 -18.3716 -18.3645 -18.3516 -18.2659 -18.2581 -18.0755 -18.0675
   -12.5059 -12.5001 -12.4063 -11.5802 -11.5739 -11.4250 -11.4183 -10.9245
   -10.9215  -9.9278  -9.9240  -9.6734  -9.3730  -9.3704  -9.2280  -9.2257
    -9.0405  -9.0385  -8.9059  -8.3217  -8.3187  -7.8995  -7.8973  -7.8600
    -7.8417  -7.7687  -7.5952  -7.5705  -7.1135  -7.0792  -6.9573  -6.8866
    -6.8834  -6.8412  -6.5299  -6.5258  -6.2557  -5.3308  -5.3028  -5.1410
    -5.0633  -4.7914  -4.7845  -4.7375  -4.6020  -4.5948  -4.3404  -4.3205
    -1.4618   0.4024   0.8015   0.9919   1.0857   1.1521   1.2119   1.3202
     1.4693   1.5367   1.6054   1.6916   1.7800   1.8608   1.8911   1.9367
     1.9807   2.0559   2.1283   2.1407   2.2491   2.3129

          k =-0.0000-0.1925 0.0000 ( 59226 PWs)   bands (ev):

   -68.6865 -68.6767 -40.3757 -40.2767 -40.1011 -40.0912 -40.0551 -40.0452
   -21.3102 -20.5276 -20.3496 -20.3368 -19.9837 -19.9722 -19.8062 -18.7263
   -18.7147 -18.3876 -18.3681 -18.3492 -18.2533 -18.2523 -18.0791 -18.0682
   -12.5076 -12.4985 -12.4061 -11.5820 -11.5736 -11.4246 -11.4159 -10.9258
   -10.9219  -9.9271  -9.9246  -9.6738  -9.3732  -9.3691  -9.2278  -9.2264
    -9.0403  -9.0389  -8.9063  -8.3214  -8.3182  -7.8988  -7.8970  -7.8506
    -7.8378  -7.7702  -7.6096  -7.5800  -7.0975  -7.0761  -6.9561  -6.8882
    -6.8831  -6.8497  -6.5304  -6.5247  -6.2562  -5.3248  -5.3028  -5.1413
    -5.0630  -4.8117  -4.7899  -4.7385  -4.5881  -4.5816  -4.3426  -4.3246
    -1.4688   0.5355   0.7648   0.9720   1.0981   1.1538   1.2007   1.2962
     1.4474   1.4829   1.5258   1.6221   1.7292   1.8440   1.9321   1.9401
     2.0613   2.0737   2.1602   2.1625   2.1972   2.3205

          k = 0.5000-0.8660 0.0000 ( 59292 PWs)   bands (ev):

   -68.6865 -68.6767 -40.3757 -40.2767 -40.1011 -40.0912 -40.0551 -40.0452
   -21.0460 -21.0437 -20.4682 -20.4593 -19.4246 -19.4155 -19.4110 -19.4053
   -18.9888 -18.9861 -18.3202 -18.3177 -18.3150 -18.3093 -17.7918 -17.7837
   -12.0676 -12.0643 -12.0621 -12.0590 -11.8779 -11.8702 -11.3270 -11.3257
   -10.2338 -10.2288 -10.1335 -10.1307 -10.1274 -10.1236  -8.5635  -8.5450
    -8.5443  -8.5433  -8.5418  -8.5320  -7.8629  -7.8612  -7.8570  -7.8552
    -7.8221  -7.8166  -7.7667  -7.7411  -7.4884  -7.4848  -6.6104  -6.6045
    -6.3333  -6.3130  -6.2955  -6.2839  -6.1878  -6.1852  -5.6945  -5.6877
    -5.5436  -5.5400  -4.7081  -4.6986  -4.6883  -4.6855  -3.8750  -3.8555
    -1.4202   0.1396   0.7957   1.0448   1.0694   1.1374   1.2839   1.4210
     1.5174   1.5367   1.5898   1.6971   1.7611   1.8734   1.9233   1.9516
     1.9850   2.0464   2.1619   2.2224   2.3148   2.3453

          k =-1.0000 0.0000 0.0000 ( 59292 PWs)   bands (ev):

   -68.6865 -68.6767 -40.3758 -40.2767 -40.1011 -40.0912 -40.0551 -40.0452
   -21.0694 -21.0180 -20.4721 -20.4595 -19.4206 -19.4167 -19.4165 -19.3975
   -19.0074 -18.9689 -18.3636 -18.3293 -18.2904 -18.2798 -17.7938 -17.7831
   -12.0989 -12.0782 -12.0382 -12.0341 -11.8798 -11.8691 -11.3472 -11.3075
   -10.2394 -10.2365 -10.1298 -10.1291 -10.1223 -10.1221  -8.6021  -8.5707
    -8.5551  -8.5268  -8.5165  -8.4875  -7.8722  -7.8664  -7.8579  -7.8578
    -7.8120  -7.8112  -7.7723  -7.7468  -7.5104  -7.4646  -6.6101  -6.6025
    -6.3316  -6.3119  -6.2970  -6.2718  -6.2048  -6.1707  -5.7193  -5.6672
    -5.5627  -5.5211  -4.7643  -4.7307  -4.6463  -4.6419  -3.8742  -3.8576
    -1.4507   0.4954   0.8171   0.9365   1.0448   1.1384   1.2076   1.2730
     1.3512   1.4946   1.5850   1.6420   1.6728   1.7962   1.8650   1.8894
     2.1310   2.1430   2.1627   2.1883   2.3300   2.3306

     the Fermi energy is    -1.1732 ev

!    total energy              =   -1133.82835889 Ry

     total all-electron energy =     -6753.504062 Ry
     estimated scf accuracy    <       0.00000003 Ry
     smearing contrib. (-TS)   =      -0.00000000 Ry
     internal energy E=F+TS    =   -1133.82835889 Ry

     The total energy is F=E-TS. E is the sum of the following terms:
     one-electron contribution =   -3953.43322876 Ry
     hartree contribution      =    2004.90610366 Ry
     xc contribution           =    -186.02066655 Ry
     ewald contribution        =    1360.09656545 Ry
     DFT-D3 Dispersion         =      -0.13404233 Ry
     one-center paw contrib.   =    -359.24309036 Ry

     total magnetization       =    10.00 Bohr mag/cell
     absolute magnetization    =    10.01 Bohr mag/cell

     convergence has been achieved in  14 iterations

     Writing output data file ./mytmp/Crdimer0.141-0.5.save/
 
     init_run     :     18.32s CPU     19.28s WALL (       1 calls)
     electrons    :    480.24s CPU    510.96s WALL (       1 calls)

     Called by init_run:
     wfcinit      :     13.54s CPU     14.08s WALL (       1 calls)
     potinit      :      1.52s CPU      1.59s WALL (       1 calls)
     hinit0       :      1.55s CPU      1.64s WALL (       1 calls)

     Called by electrons:
     c_bands      :    382.71s CPU    405.46s WALL (      14 calls)
     sum_band     :     75.34s CPU     80.15s WALL (      14 calls)
     v_of_rho     :      4.60s CPU      4.95s WALL (      15 calls)
     newd         :      9.54s CPU     12.42s WALL (      15 calls)
     PAW_pot      :      7.36s CPU      7.45s WALL (      15 calls)
     mix_rho      :      0.99s CPU      1.00s WALL (      14 calls)

     Called by c_bands:
     init_us_2    :      5.00s CPU      5.03s WALL (     870 calls)
     cegterg      :    370.34s CPU    393.00s WALL (     420 calls)

     Called by *egterg:
     cdiaghg      :     23.73s CPU     37.65s WALL (    2620 calls)
     h_psi        :    240.31s CPU    248.43s WALL (    2650 calls)
     s_psi        :     26.79s CPU     26.84s WALL (    2650 calls)
     g_psi        :      0.70s CPU      0.71s WALL (    2200 calls)

     Called by h_psi:
     h_psi:calbec :     27.73s CPU     28.27s WALL (    2650 calls)
     vloc_psi     :    183.61s CPU    191.10s WALL (    2650 calls)
     add_vuspsi   :     26.84s CPU     26.95s WALL (    2650 calls)

     General routines
     calbec       :     37.11s CPU     37.83s WALL (    3070 calls)
     fft          :      4.36s CPU      5.25s WALL (     369 calls)
     ffts         :      0.12s CPU      0.12s WALL (      58 calls)
     fftw         :    188.73s CPU    196.22s WALL (  248126 calls)
     interpolate  :      0.42s CPU      0.44s WALL (      30 calls)
 
     Parallel routines
     fft_scatt_xy :     30.75s CPU     31.86s WALL (  248553 calls)
     fft_scatt_yz :     73.98s CPU     78.19s WALL (  248553 calls)
 
     PWSCF        :   8m20.60s CPU   8m54.30s WALL

 
   This run was terminated on:  12:45:29   2Apr2021            

=------------------------------------------------------------------------------=
   JOB DONE.
=------------------------------------------------------------------------------=
