
     Program PWSCF v.6.7MaX starts on  2Apr2021 at 15: 0:40 

     This program is part of the open-source Quantum ESPRESSO suite
     for quantum simulation of materials; please cite
         "P. Giannozzi et al., J. Phys.:Condens. Matter 21 395502 (2009);
         "P. Giannozzi et al., J. Phys.:Condens. Matter 29 465901 (2017);
          URL http://www.quantum-espresso.org", 
     in publications or presentations arising from this work. More details at
     http://www.quantum-espresso.org/quote

     Parallel version (MPI), running on    48 processors

     MPI processes distributed on     1 nodes
     R & G space division:  proc/nbgrp/npool/nimage =      48
     Reading input from Crdimer0.143-0.2.scf.in

     Current dimensions of program PWSCF are:
     Max number of different atomic species (ntypx) = 10
     Max number of k-points (npk) =  40000
     Max angular momentum in pseudopotentials (lmaxx) =  3
     file N.pbe-n-kjpaw_psl.1.0.0.UPF: wavefunction(s)  2S renormalized
     file Cr.pbe-spn-kjpaw_psl.1.0.0.UPF: wavefunction(s)  3S 3P 3D renormalized
     file Cr.pbe-spn-kjpaw_psl.1.0.0.UPF: wavefunction(s)  3S 3P 3D renormalized

     --------------------------------------------
     Parameters for DFT-D3 Dispersion Correction:
     --------------------------------------------
       Reference C6 values for interpolation: 

         atom   Coordination number   C6
         B          0.000           214.36
         B          0.971           150.74
         B          1.944           106.23
         B          2.913            62.89
         B          4.586            56.06
         N          0.000            50.54
         N          0.994            44.25
         N          2.014            39.35
         N          2.990            31.16
         Cr1        0.000          1381.48
         Cr1        1.827           571.38
         Cr1       10.619           306.69
         Cr2        0.000          1381.48
         Cr2        1.827           571.38
         Cr2       10.619           306.69

       Values used:

         atom   Coordination number  R0_AB[au]  C6      C8
         B          3.338            3.039     62.89   2505.93
         B          3.335            3.039     62.89   2506.01
         B          3.343            3.039     62.89   2505.81
         B          3.336            3.039     62.89   2506.00
         B          3.379            3.039     62.86   2504.76
         B          3.335            3.039     62.89   2506.00
         N          3.134            2.478     31.22    688.69
         N          3.135            2.478     31.22    688.69
         N          3.152            2.478     31.21    688.54
         N          3.136            2.478     31.22    688.68
         N          3.145            2.478     31.21    688.60
         N          3.134            2.478     31.22    688.70
         N          3.142            2.478     31.21    688.62
         N          3.134            2.478     31.22    688.70
         N          3.135            2.478     31.22    688.69
         B          3.337            3.039     62.89   2505.97
         B          3.335            3.039     62.89   2506.01
         B          3.335            3.039     62.89   2506.00
         B          3.379            3.039     62.86   2504.76
         B          3.338            3.039     62.89   2505.93
         B          3.337            3.039     62.89   2505.97
         N          3.142            2.478     31.21    688.62
         B          3.335            3.039     62.89   2506.01
         B          3.337            3.039     62.89   2505.95
         B          3.341            3.039     62.89   2505.87
         N          3.134            2.478     31.22    688.70
         N          3.135            2.478     31.22    688.69
         N          3.134            2.478     31.22    688.69
         N          3.134            2.478     31.22    688.69
         N          3.152            2.478     31.21    688.54
         N          3.136            2.478     31.22    688.68
         B          3.341            3.039     62.89   2505.87
         Cr1        0.697            3.252   1339.66 123635.68
         Cr2        0.697            3.252   1339.66 123635.68

         Molecular C6 ( Ry / a.u.^6 ) =     78684.79


     Subspace diagonalization in iterative solution of the eigenvalue problem:
     one sub-group per band group will be used
     scalapack distributed-memory algorithm (size of sub-group:  6*  6 procs)

 
     Parallelization info
     --------------------
     sticks:   dense  smooth     PW     G-vecs:    dense   smooth      PW
     Min         235      98     26                36277     9874    1408
     Max         236      99     27                36282     9883    1425
     Sum       11311    4741   1285              1741401   474235   68095
 


     bravais-lattice index     =            4
     lattice parameter (alat)  =      18.9275  a.u.
     unit-cell volume          =   10553.3021 (a.u.)^3
     number of atoms/cell      =           34
     number of atomic types    =            4
     number of electrons       =       156.00
     number of Kohn-Sham states=           94
     kinetic-energy cutoff     =      48.0000  Ry
     charge density cutoff     =     457.0000  Ry
     scf convergence threshold =      1.0E-07
     mixing beta               =       0.5000
     number of iterations used =            8  plain     mixing
     Exchange-correlation= SLA  PW   PBX  PBC
                           (   1   4   3   4   0   0   0)

     celldm(1)=  18.927497  celldm(2)=   0.000000  celldm(3)=   1.797125
     celldm(4)=   0.000000  celldm(5)=   0.000000  celldm(6)=   0.000000

     crystal axes: (cart. coord. in units of alat)
               a(1) = (   1.000000   0.000000   0.000000 )  
               a(2) = (  -0.500000   0.866025   0.000000 )  
               a(3) = (   0.000000   0.000000   1.797125 )  

     reciprocal axes: (cart. coord. in units 2 pi/alat)
               b(1) = (  1.000000  0.577350  0.000000 )  
               b(2) = (  0.000000  1.154701  0.000000 )  
               b(3) = (  0.000000  0.000000  0.556444 )  


     PseudoPot. # 1 for B  read from file:
     /home/sf05/q-e-qe-6.7MaX-Release/pseudo/B.pbe-n-kjpaw_psl.1.0.0.UPF
     MD5 check sum: d9c678ba5d3b2fd7b74e61139c9288d8
     Pseudo is Projector augmented-wave + core cor, Zval =  3.0
     Generated using "atomic" code by A. Dal Corso  v.5.1.2
     Shape of augmentation charge: PSQ
     Using radial grid of 1059 points,  4 beta functions with: 
                l(1) =   0
                l(2) =   0
                l(3) =   1
                l(4) =   1
     Q(r) pseudized with 0 coefficients 


     PseudoPot. # 2 for N  read from file:
     /home/sf05/q-e-qe-6.7MaX-Release/pseudo/N.pbe-n-kjpaw_psl.1.0.0.UPF
     MD5 check sum: e0e4e94a9c4025c5b51bd7d8793849bd
     Pseudo is Projector augmented-wave + core cor, Zval =  5.0
     Generated using "atomic" code by A. Dal Corso  v.5.1.2
     Shape of augmentation charge: PSQ
     Using radial grid of 1085 points,  4 beta functions with: 
                l(1) =   0
                l(2) =   0
                l(3) =   1
                l(4) =   1
     Q(r) pseudized with 0 coefficients 


     PseudoPot. # 3 for Cr read from file:
     /home/sf05/q-e-qe-6.7MaX-Release/pseudo/Cr.pbe-spn-kjpaw_psl.1.0.0.UPF
     MD5 check sum: 198f1a2427a48552563eee314eba32ba
     Pseudo is Projector augmented-wave + core cor, Zval = 14.0
     Generated using &quot;atomic&quot; code by A. Dal Corso  v.6.3
     Shape of augmentation charge: PSQ
     Using radial grid of 1183 points,  6 beta functions with: 
                l(1) =   0
                l(2) =   0
                l(3) =   1
                l(4) =   1
                l(5) =   2
                l(6) =   2
     Q(r) pseudized with 0 coefficients 


     PseudoPot. # 4 for Cr read from file:
     /home/sf05/q-e-qe-6.7MaX-Release/pseudo/Cr.pbe-spn-kjpaw_psl.1.0.0.UPF
     MD5 check sum: 198f1a2427a48552563eee314eba32ba
     Pseudo is Projector augmented-wave + core cor, Zval = 14.0
     Generated using &quot;atomic&quot; code by A. Dal Corso  v.6.3
     Shape of augmentation charge: PSQ
     Using radial grid of 1183 points,  6 beta functions with: 
                l(1) =   0
                l(2) =   0
                l(3) =   1
                l(4) =   1
                l(5) =   2
                l(6) =   2
     Q(r) pseudized with 0 coefficients 


     atomic species   valence    mass     pseudopotential
        B              3.00    10.81100     B ( 1.00)
        N              5.00    14.00674     N ( 1.00)
        Cr1           14.00    51.99610     Cr( 1.00)
        Cr2           14.00    51.99610     Cr( 1.00)

     Starting magnetic structure 
     atomic species   magnetization
        B            0.000
        N            0.000
        Cr1          1.000
        Cr2          1.000

     No symmetry found



   Cartesian axes

     site n.     atom                  positions (alat units)
         1           B   tau(   1) = (  -0.1250000   0.2165064   0.8985623  )
         2           B   tau(   2) = (   0.3750000   0.6495191   0.8985623  )
         3           B   tau(   3) = (   0.2500000   0.0000000   0.8985623  )
         4           B   tau(   4) = (   0.7500000   0.0000000   0.8985623  )
         5           B   tau(   5) = (   0.1250000   0.2165064   0.8985623  )
         6           B   tau(   6) = (  -0.3750000   0.6495191   0.8985623  )
         7           N   tau(   7) = (   0.7500005   0.2886748   0.8985623  )
         8           N   tau(   8) = (   0.3750005   0.5051812   0.8985623  )
         9           N   tau(   9) = (   0.3750005   0.0721685   0.8985623  )
        10           N   tau(  10) = (   0.6250005   0.0721685   0.8985623  )
        11           N   tau(  11) = (   0.2500005   0.2886748   0.8985623  )
        12           N   tau(  12) = (   0.6250005   0.5051812   0.8985623  )
        13           N   tau(  13) = (   0.0000005   0.2886748   0.8985623  )
        14           N   tau(  14) = (   0.2500005   0.7216875   0.8985623  )
        15           N   tau(  15) = (  -0.2499995   0.7216875   0.8985623  )
        16           B   tau(  16) = (   0.0000000   0.4330127   0.8985623  )
        17           B   tau(  17) = (   0.1250000   0.6495191   0.8985623  )
        18           B   tau(  18) = (  -0.1250000   0.6495191   0.8985623  )
        19           B   tau(  19) = (   0.3750000   0.2165064   0.8985623  )
        20           B   tau(  20) = (   0.6250000   0.2165064   0.8985623  )
        21           B   tau(  21) = (   0.5000000   0.4330127   0.8985623  )
        22           N   tau(  22) = (   0.5000005   0.2886748   0.8985623  )
        23           B   tau(  23) = (  -0.2500000   0.4330127   0.8985623  )
        24           B   tau(  24) = (   0.2500000   0.4330127   0.8985623  )
        25           B   tau(  25) = (   0.5000000   0.0000000   0.8985623  )
        26           N   tau(  26) = (  -0.1249995   0.5051812   0.8985623  )
        27           N   tau(  27) = (   0.1250005   0.5051812   0.8985623  )
        28           N   tau(  28) = (   0.0000005   0.7216875   0.8985623  )
        29           N   tau(  29) = (   0.5000005   0.7216875   0.8985623  )
        30           N   tau(  30) = (   0.1250005   0.0721685   0.8985623  )
        31           N   tau(  31) = (   0.8750005   0.0721685   0.8985623  )
        32           B   tau(  32) = (   0.0000000   0.0000000   0.8985623  )
        33           Cr1 tau(  33) = (   0.3930000   0.1732051   1.2040735  )
        34           Cr2 tau(  34) = (   0.1070000   0.1732051   1.2040735  )

     number of k points=    15  Gaussian smearing, width (Ry)=  0.0000
                       cart. coord. in units 2pi/alat
        k(    1) = (   0.1666667   0.2886751   0.0000000), wk =   0.0740741
        k(    2) = (   0.1666667  -0.4811252   0.0000000), wk =   0.0740741
        k(    3) = (   0.1666667  -0.0962250   0.0000000), wk =   0.0740741
        k(    4) = (  -0.5000000  -0.8660254   0.0000000), wk =   0.0370370
        k(    5) = (  -0.1666667   0.2886751   0.0000000), wk =   0.0740741
        k(    6) = (   0.3333333   0.0000000   0.0000000), wk =   0.0740741
        k(    7) = (  -0.1666667  -0.4811252   0.0000000), wk =   0.0740741
        k(    8) = (   0.5000000  -0.0962250   0.0000000), wk =   0.0740741
        k(    9) = (  -0.3333333  -0.3849002   0.0000000), wk =   0.0740741
        k(   10) = (   0.5000000   0.0962250   0.0000000), wk =   0.0740741
        k(   11) = (  -0.3333333   0.3849002   0.0000000), wk =   0.0740741
        k(   12) = (  -0.1666667  -0.0962250   0.0000000), wk =   0.0740741
        k(   13) = (  -0.0000000  -0.1924501   0.0000000), wk =   0.0740741
        k(   14) = (   0.5000000  -0.8660254   0.0000000), wk =   0.0370370
        k(   15) = (  -1.0000000   0.0000000   0.0000000), wk =   0.0370370

     Dense  grid:  1741401 G-vectors     FFT dimensions: ( 135, 135, 240)

     Smooth grid:   474235 G-vectors     FFT dimensions: (  90,  90, 160)

     Estimated max dynamical RAM per process >     218.62 MB

     Estimated total dynamical RAM >      10.25 GB
     Generating pointlists ...
     new r_m :   0.0595 (alat units)  1.1269 (a.u.) for type    1
     new r_m :   0.0595 (alat units)  1.1269 (a.u.) for type    2
     new r_m :   0.1180 (alat units)  2.2330 (a.u.) for type    3
     new r_m :   0.1180 (alat units)  2.2330 (a.u.) for type    4

     Initial potential from superposition of free atoms

     starting charge  155.99382, renormalised to  156.00000

     negative rho (up, down):  6.712E-03 4.655E-04
     Starting wfcs are  148 randomized atomic wfcs
     Checking if some PAW data can be deallocated... 

     total cpu time spent up to now is       20.0 secs

     Self-consistent Calculation

     iteration #  1     ecut=    48.00 Ry     beta= 0.50
     Davidson diagonalization with overlap
     ethr =  1.00E-02,  avg # of iterations =  2.8

     negative rho (up, down):  4.895E-03 2.913E-03

     total cpu time spent up to now is       64.9 secs

     total energy              =   -1130.73400208 Ry
     estimated scf accuracy    <      11.37794045 Ry

     total magnetization       =    12.00 Bohr mag/cell
     absolute magnetization    =    12.12 Bohr mag/cell

     iteration #  2     ecut=    48.00 Ry     beta= 0.50
     Davidson diagonalization with overlap
     ethr =  7.29E-03,  avg # of iterations =  2.8

     negative rho (up, down):  8.481E-03 7.629E-03

     total cpu time spent up to now is      106.2 secs

     total energy              =   -1132.97783255 Ry
     estimated scf accuracy    <       3.64261105 Ry

     total magnetization       =    10.00 Bohr mag/cell
     absolute magnetization    =    10.10 Bohr mag/cell

     iteration #  3     ecut=    48.00 Ry     beta= 0.50
     Davidson diagonalization with overlap
     ethr =  2.34E-03,  avg # of iterations =  6.8

     negative rho (up, down):  3.808E-03 3.767E-03

     total cpu time spent up to now is      147.7 secs

     total energy              =   -1133.57474922 Ry
     estimated scf accuracy    <       0.78803369 Ry

     total magnetization       =    12.00 Bohr mag/cell
     absolute magnetization    =    12.06 Bohr mag/cell

     iteration #  4     ecut=    48.00 Ry     beta= 0.50
     Davidson diagonalization with overlap
     ethr =  5.05E-04,  avg # of iterations =  6.7

     negative rho (up, down):  6.836E-03 7.684E-03

     total cpu time spent up to now is      188.1 secs

     total energy              =   -1133.77753980 Ry
     estimated scf accuracy    <       0.49034778 Ry

     total magnetization       =    10.00 Bohr mag/cell
     absolute magnetization    =    10.02 Bohr mag/cell

     iteration #  5     ecut=    48.00 Ry     beta= 0.50
     Davidson diagonalization with overlap
     ethr =  3.14E-04,  avg # of iterations =  6.9

     negative rho (up, down):  4.716E-03 5.047E-03

     total cpu time spent up to now is      230.2 secs

     total energy              =   -1133.81655928 Ry
     estimated scf accuracy    <       0.02731793 Ry

     total magnetization       =    10.00 Bohr mag/cell
     absolute magnetization    =    10.03 Bohr mag/cell

     iteration #  6     ecut=    48.00 Ry     beta= 0.50
     Davidson diagonalization with overlap
     c_bands:  1 eigenvalues not converged
     c_bands:  1 eigenvalues not converged
     ethr =  1.75E-05,  avg # of iterations = 12.7

     negative rho (up, down):  3.871E-03 3.910E-03

     total cpu time spent up to now is      285.4 secs

     total energy              =   -1133.81865330 Ry
     estimated scf accuracy    <       0.04448219 Ry

     total magnetization       =    10.00 Bohr mag/cell
     absolute magnetization    =    10.02 Bohr mag/cell

     iteration #  7     ecut=    48.00 Ry     beta= 0.50
     Davidson diagonalization with overlap
     ethr =  1.75E-05,  avg # of iterations =  6.3

     negative rho (up, down):  3.324E-03 3.783E-03

     total cpu time spent up to now is      328.1 secs

     total energy              =   -1133.82624633 Ry
     estimated scf accuracy    <       0.00313503 Ry

     total magnetization       =    10.00 Bohr mag/cell
     absolute magnetization    =    10.02 Bohr mag/cell

     iteration #  8     ecut=    48.00 Ry     beta= 0.50
     Davidson diagonalization with overlap
     ethr =  2.01E-06,  avg # of iterations =  7.8

     negative rho (up, down):  3.223E-03 3.742E-03

     total cpu time spent up to now is      371.1 secs

     total energy              =   -1133.82713838 Ry
     estimated scf accuracy    <       0.00043774 Ry

     total magnetization       =    10.00 Bohr mag/cell
     absolute magnetization    =    10.01 Bohr mag/cell

     iteration #  9     ecut=    48.00 Ry     beta= 0.50
     Davidson diagonalization with overlap
     ethr =  2.81E-07,  avg # of iterations =  4.3

     negative rho (up, down):  3.152E-03 3.740E-03

     total cpu time spent up to now is      408.4 secs

     total energy              =   -1133.82732662 Ry
     estimated scf accuracy    <       0.00015396 Ry

     total magnetization       =    10.00 Bohr mag/cell
     absolute magnetization    =    10.01 Bohr mag/cell

     iteration # 10     ecut=    48.00 Ry     beta= 0.50
     Davidson diagonalization with overlap
     ethr =  9.87E-08,  avg # of iterations =  3.7

     negative rho (up, down):  3.142E-03 3.753E-03

     total cpu time spent up to now is      447.4 secs

     total energy              =   -1133.82741401 Ry
     estimated scf accuracy    <       0.00003171 Ry

     total magnetization       =    10.00 Bohr mag/cell
     absolute magnetization    =    10.01 Bohr mag/cell

     iteration # 11     ecut=    48.00 Ry     beta= 0.50
     Davidson diagonalization with overlap
     ethr =  2.03E-08,  avg # of iterations =  4.2

     negative rho (up, down):  3.133E-03 3.768E-03

     total cpu time spent up to now is      484.0 secs

     total energy              =   -1133.82744210 Ry
     estimated scf accuracy    <       0.00000830 Ry

     total magnetization       =    10.00 Bohr mag/cell
     absolute magnetization    =    10.01 Bohr mag/cell

     iteration # 12     ecut=    48.00 Ry     beta= 0.50
     Davidson diagonalization with overlap
     ethr =  5.32E-09,  avg # of iterations =  4.6

     negative rho (up, down):  3.128E-03 3.786E-03

     total cpu time spent up to now is      520.9 secs

     total energy              =   -1133.82745138 Ry
     estimated scf accuracy    <       0.00000188 Ry

     total magnetization       =    10.00 Bohr mag/cell
     absolute magnetization    =    10.01 Bohr mag/cell

     iteration # 13     ecut=    48.00 Ry     beta= 0.50
     Davidson diagonalization with overlap
     ethr =  1.20E-09,  avg # of iterations =  5.1

     negative rho (up, down):  3.124E-03 3.789E-03

     total cpu time spent up to now is      560.4 secs

     total energy              =   -1133.82745577 Ry
     estimated scf accuracy    <       0.00000028 Ry

     total magnetization       =    10.00 Bohr mag/cell
     absolute magnetization    =    10.01 Bohr mag/cell

     iteration # 14     ecut=    48.00 Ry     beta= 0.50
     Davidson diagonalization with overlap
     ethr =  1.77E-10,  avg # of iterations =  4.7

     negative rho (up, down):  3.122E-03 3.792E-03

     total cpu time spent up to now is      599.6 secs

     total energy              =   -1133.82745647 Ry
     estimated scf accuracy    <       0.00000011 Ry

     total magnetization       =    10.00 Bohr mag/cell
     absolute magnetization    =    10.01 Bohr mag/cell

     iteration # 15     ecut=    48.00 Ry     beta= 0.50
     Davidson diagonalization with overlap
     ethr =  7.04E-11,  avg # of iterations =  4.8

     negative rho (up, down):  3.122E-03 3.792E-03
 
     Magnetic moment per site:
     atom:    1    charge:    0.8809    magn:    0.0003    constr:    0.0000
     atom:    2    charge:    0.8803    magn:    0.0001    constr:    0.0000
     atom:    3    charge:    0.8795    magn:    0.0008    constr:    0.0000
     atom:    4    charge:    0.8806    magn:    0.0002    constr:    0.0000
     atom:    5    charge:    0.8806    magn:    0.0002    constr:    0.0000
     atom:    6    charge:    0.8802    magn:    0.0001    constr:    0.0000
     atom:    7    charge:    2.8611    magn:    0.0001    constr:    0.0000
     atom:    8    charge:    2.8608    magn:    0.0005    constr:    0.0000
     atom:    9    charge:    2.8607    magn:    0.0072    constr:    0.0000
     atom:   10    charge:    2.8609    magn:    0.0011    constr:    0.0000
     atom:   11    charge:    2.8604    magn:    0.0061    constr:    0.0000
     atom:   12    charge:    2.8610    magn:    0.0001    constr:    0.0000
     atom:   13    charge:    2.8597    magn:    0.0043    constr:    0.0000
     atom:   14    charge:    2.8599    magn:    0.0003    constr:    0.0000
     atom:   15    charge:    2.8598    magn:    0.0004    constr:    0.0000
     atom:   16    charge:    0.8800    magn:    0.0005    constr:    0.0000
     atom:   17    charge:    0.8800    magn:    0.0001    constr:    0.0000
     atom:   18    charge:    0.8799    magn:    0.0001    constr:    0.0000
     atom:   19    charge:    0.8800    magn:    0.0002    constr:    0.0000
     atom:   20    charge:    0.8804    magn:    0.0003    constr:    0.0000
     atom:   21    charge:    0.8798    magn:    0.0005    constr:    0.0000
     atom:   22    charge:    2.8610    magn:    0.0043    constr:    0.0000
     atom:   23    charge:    0.8801    magn:    0.0002    constr:    0.0000
     atom:   24    charge:    0.8796    magn:    0.0004    constr:    0.0000
     atom:   25    charge:    0.8802    magn:    0.0003    constr:    0.0000
     atom:   26    charge:    2.8598    magn:    0.0001    constr:    0.0000
     atom:   27    charge:    2.8597    magn:    0.0005    constr:    0.0000
     atom:   28    charge:    2.8597    magn:    0.0005    constr:    0.0000
     atom:   29    charge:    2.8596    magn:    0.0005    constr:    0.0000
     atom:   30    charge:    2.8594    magn:    0.0072    constr:    0.0000
     atom:   31    charge:    2.8596    magn:    0.0011    constr:    0.0000
     atom:   32    charge:    0.8804    magn:    0.0003    constr:    0.0000
     atom:   33    charge:   12.5478    magn:    4.2577    constr:    0.0000
     atom:   34    charge:   12.5478    magn:    4.2578    constr:    0.0000

     total cpu time spent up to now is      638.2 secs

     End of self-consistent calculation

 ------ SPIN UP ------------


          k = 0.1667 0.2887 0.0000 ( 59267 PWs)   bands (ev):

   -72.8915 -72.8844 -44.4358 -44.3635 -44.2916 -44.2846 -44.2697 -44.2626
   -21.2425 -20.6572 -20.6506 -20.1023 -20.0900 -19.5842 -19.5777 -19.0952
   -18.6932 -18.6866 -18.4554 -18.4443 -18.1904 -18.0816 -18.0739 -17.8454
   -12.4798 -12.2037 -12.1962 -11.8176 -11.8130 -11.6542 -11.1882 -11.1843
   -10.3878 -10.3638 -10.1140 -10.1106  -9.5851  -9.5838  -8.8353  -8.8206
    -8.8171  -8.7633  -8.7566  -8.5923  -8.1930  -8.0477  -8.0126  -7.8255
    -7.8221  -7.4341  -7.4331  -7.2798  -7.2541  -7.2045  -7.2014  -6.9586
    -6.9490  -6.5619  -6.5353  -6.1498  -6.1483  -5.8681  -5.4144  -5.2927
    -5.2702  -5.1959  -4.9125  -4.8928  -4.5028  -4.3530  -4.3368  -3.9758
    -2.8544  -2.0227  -1.9978  -1.8277  -1.6387  -1.6140  -1.5071  -1.4902
    -1.3963  -1.3835  -1.3432  -0.7497   0.6940   0.9121   1.0153   1.1773
     1.2883   1.4691   1.5201   1.5747   1.6074   1.7992

          k = 0.1667-0.4811 0.0000 ( 59291 PWs)   bands (ev):

   -72.8915 -72.8844 -44.4358 -44.3635 -44.2916 -44.2846 -44.2697 -44.2626
   -21.1119 -20.9082 -20.7185 -20.1564 -19.8000 -19.4625 -19.3126 -19.1704
   -19.0102 -18.7748 -18.6360 -18.5405 -18.1441 -18.0860 -17.9180 -17.7196
   -12.3438 -12.1090 -12.0406 -11.9025 -11.6764 -11.6545 -11.5486 -10.9381
   -10.8858 -10.6195 -10.5193  -9.8560  -9.6891  -9.3321  -9.1068  -8.6637
    -8.6186  -8.5487  -8.3851  -8.3641  -8.1572  -8.1197  -8.0590  -8.0455
    -7.6837  -7.6191  -7.4898  -7.4699  -7.3529  -7.1668  -7.0637  -6.8567
    -6.6180  -6.3859  -6.1737  -6.1538  -5.9683  -5.9252  -5.7792  -5.7424
    -5.4472  -5.3946  -5.2057  -5.0381  -4.4405  -4.3443  -4.0852  -3.7631
    -2.8513  -2.0224  -1.9976  -1.8245  -1.6378  -1.6138  -1.5091  -1.4914
    -1.3972  -1.3831  -1.3442  -0.7535   0.6011   0.9063   1.0128   1.1079
     1.2307   1.2831   1.3844   1.8413   1.9190   2.1224

          k = 0.1667-0.0962 0.0000 ( 59226 PWs)   bands (ev):

   -72.8915 -72.8844 -44.4358 -44.3635 -44.2917 -44.2846 -44.2697 -44.2626
   -21.3090 -20.5310 -20.3420 -20.3342 -19.9842 -19.9761 -19.8018 -18.7251
   -18.7175 -18.3723 -18.3618 -18.3513 -18.2674 -18.2549 -18.0740 -18.0668
   -12.5044 -12.4969 -12.4041 -11.5772 -11.5718 -11.4246 -11.4141 -10.9221
   -10.9195  -9.9258  -9.9217  -9.6716  -9.3729  -9.3659  -9.2268  -9.2236
    -9.0384  -9.0359  -8.9197  -8.3203  -8.3168  -7.8976  -7.8945  -7.8769
    -7.8406  -7.7661  -7.6066  -7.5778  -7.1326  -7.0878  -6.9549  -6.8837
    -6.8812  -6.8481  -6.5272  -6.5237  -6.2533  -5.3461  -5.3134  -5.1390
    -5.0611  -4.8067  -4.7929  -4.7463  -4.6191  -4.5957  -4.3505  -4.3278
    -2.8579  -2.0230  -1.9980  -1.8310  -1.6407  -1.6143  -1.5055  -1.4888
    -1.3955  -1.3840  -1.3422  -0.7457   0.8183   0.9010   0.9568   1.1932
     1.2571   1.3411   1.5839   1.5945   1.7040   1.9417

          k =-0.5000-0.8660 0.0000 ( 59292 PWs)   bands (ev):

   -72.8915 -72.8844 -44.4358 -44.3635 -44.2917 -44.2846 -44.2696 -44.2626
   -21.0470 -21.0406 -20.4662 -20.4589 -19.4247 -19.4140 -19.4112 -19.4026
   -18.9891 -18.9836 -18.3208 -18.3197 -18.3152 -18.3033 -17.7904 -17.7835
   -12.0673 -12.0628 -12.0616 -12.0522 -11.8742 -11.8686 -11.3261 -11.3224
   -10.2317 -10.2269 -10.1311 -10.1283 -10.1268 -10.1211  -8.5852  -8.5469
    -8.5434  -8.5407  -8.5399  -8.5333  -7.8599  -7.8588  -7.8550  -7.8538
    -7.8220  -7.8147  -7.7779  -7.7490  -7.4878  -7.4800  -6.6075  -6.6026
    -6.3597  -6.3219  -6.3042  -6.2921  -6.1878  -6.1813  -5.7077  -5.6936
    -5.5425  -5.5365  -4.7214  -4.7085  -4.7067  -4.6841  -3.8836  -3.8643
    -2.8386  -2.0204  -1.9958  -1.8258  -1.6383  -1.6138  -1.5086  -1.4935
    -1.4039  -1.3876  -1.3466  -0.8754   0.7966   1.0524   1.0882   1.1795
     1.3371   1.5757   1.5855   1.6075   1.6751   1.7644

          k =-0.1667 0.2887 0.0000 ( 59267 PWs)   bands (ev):

   -72.8915 -72.8844 -44.4358 -44.3635 -44.2916 -44.2846 -44.2697 -44.2626
   -21.2425 -20.6572 -20.6506 -20.1023 -20.0900 -19.5843 -19.5777 -19.0952
   -18.6933 -18.6865 -18.4554 -18.4443 -18.1904 -18.0817 -18.0739 -17.8454
   -12.4798 -12.2037 -12.1962 -11.8176 -11.8130 -11.6542 -11.1883 -11.1842
   -10.3878 -10.3637 -10.1141 -10.1106  -9.5851  -9.5837  -8.8353  -8.8206
    -8.8170  -8.7634  -8.7566  -8.5922  -8.1930  -8.0477  -8.0126  -7.8254
    -7.8220  -7.4341  -7.4331  -7.2798  -7.2541  -7.2045  -7.2014  -6.9587
    -6.9490  -6.5619  -6.5353  -6.1498  -6.1482  -5.8681  -5.4145  -5.2927
    -5.2702  -5.1958  -4.9125  -4.8928  -4.5028  -4.3530  -4.3368  -3.9758
    -2.8544  -2.0227  -1.9978  -1.8277  -1.6387  -1.6140  -1.5071  -1.4902
    -1.3963  -1.3835  -1.3432  -0.7497   0.6940   0.9121   1.0153   1.1773
     1.2883   1.4691   1.5201   1.5747   1.6074   1.7993

          k = 0.3333 0.0000 0.0000 ( 59267 PWs)   bands (ev):

   -72.8915 -72.8844 -44.4358 -44.3635 -44.2917 -44.2846 -44.2697 -44.2626
   -21.2421 -20.6799 -20.6278 -20.0987 -20.0922 -19.6074 -19.5563 -19.0970
   -18.7082 -18.6673 -18.4539 -18.4475 -18.1861 -18.1025 -18.0591 -17.8447
   -12.4797 -12.2009 -12.1987 -11.8243 -11.8083 -11.6522 -11.2052 -11.1681
   -10.3865 -10.3639 -10.1252 -10.0996  -9.5912  -9.5767  -8.8426  -8.8188
    -8.8103  -8.7817  -8.7384  -8.5933  -8.1945  -8.0972  -7.9627  -7.8239
    -7.8218  -7.4402  -7.4266  -7.2842  -7.2441  -7.2132  -7.1927  -6.9565
    -6.9521  -6.6145  -6.4906  -6.1523  -6.1450  -5.8744  -5.4141  -5.2989
    -5.2528  -5.1963  -4.9175  -4.8914  -4.4927  -4.3775  -4.3253  -3.9744
    -2.8464  -2.0212  -1.9963  -1.8287  -1.6402  -1.6141  -1.5064  -1.4912
    -1.4006  -1.3866  -1.3447  -0.8345   0.8609   0.9824   1.1388   1.2501
     1.2698   1.4450   1.5347   1.5581   1.6039   1.7917

          k =-0.1667-0.4811 0.0000 ( 59291 PWs)   bands (ev):

   -72.8915 -72.8844 -44.4358 -44.3635 -44.2916 -44.2846 -44.2697 -44.2626
   -21.1119 -20.9082 -20.7185 -20.1564 -19.8000 -19.4624 -19.3126 -19.1704
   -19.0102 -18.7748 -18.6360 -18.5405 -18.1441 -18.0860 -17.9180 -17.7196
   -12.3438 -12.1090 -12.0406 -11.9024 -11.6763 -11.6545 -11.5486 -10.9381
   -10.8859 -10.6195 -10.5193  -9.8560  -9.6891  -9.3322  -9.1068  -8.6637
    -8.6186  -8.5487  -8.3851  -8.3641  -8.1572  -8.1197  -8.0590  -8.0456
    -7.6837  -7.6191  -7.4898  -7.4699  -7.3529  -7.1668  -7.0637  -6.8567
    -6.6180  -6.3860  -6.1737  -6.1538  -5.9683  -5.9251  -5.7792  -5.7423
    -5.4472  -5.3946  -5.2057  -5.0382  -4.4404  -4.3444  -4.0852  -3.7631
    -2.8513  -2.0224  -1.9976  -1.8245  -1.6378  -1.6138  -1.5091  -1.4914
    -1.3972  -1.3831  -1.3442  -0.7535   0.6011   0.9063   1.0128   1.1079
     1.2306   1.2831   1.3844   1.8413   1.9191   2.1225

          k = 0.5000-0.0962 0.0000 ( 59291 PWs)   bands (ev):

   -72.8915 -72.8844 -44.4358 -44.3635 -44.2916 -44.2846 -44.2697 -44.2626
   -21.1094 -20.9150 -20.7141 -20.1547 -19.8003 -19.4640 -19.3180 -19.1659
   -19.0110 -18.7753 -18.6270 -18.5462 -18.1327 -18.1012 -17.9152 -17.7194
   -12.3431 -12.1092 -12.0387 -11.9060 -11.6874 -11.6411 -11.5508 -10.9383
   -10.8840 -10.6180 -10.5214  -9.8538  -9.6898  -9.3331  -9.1063  -8.6538
    -8.6189  -8.5470  -8.3954  -8.3875  -8.1553  -8.1002  -8.0708  -8.0350
    -7.6804  -7.6197  -7.4889  -7.4710  -7.3461  -7.1681  -7.0642  -6.8568
    -6.6182  -6.3954  -6.1904  -6.1531  -5.9538  -5.9242  -5.7786  -5.7435
    -5.4484  -5.3940  -5.1828  -5.0534  -4.4161  -4.3740  -4.0823  -3.7629
    -2.8387  -2.0204  -1.9958  -1.8258  -1.6388  -1.6139  -1.5087  -1.4934
    -1.4039  -1.3877  -1.3467  -0.8751   0.7851   1.0293   1.0792   1.1871
     1.2824   1.3442   1.4997   1.7495   1.8332   1.8993

          k =-0.3333-0.3849 0.0000 ( 59291 PWs)   bands (ev):

   -72.8915 -72.8844 -44.4358 -44.3635 -44.2916 -44.2846 -44.2697 -44.2626
   -21.1103 -20.9126 -20.7158 -20.1546 -19.8019 -19.4624 -19.3136 -19.1689
   -19.0136 -18.7738 -18.6284 -18.5453 -18.1350 -18.0985 -17.9154 -17.7196
   -12.3434 -12.1078 -12.0407 -11.9053 -11.6771 -11.6524 -11.5499 -10.9382
   -10.8836 -10.6174 -10.5224  -9.8547  -9.6899  -9.3324  -9.1069  -8.6568
    -8.6180  -8.5491  -8.3862  -8.3832  -8.1569  -8.1075  -8.0590  -8.0475
    -7.6808  -7.6180  -7.4955  -7.4653  -7.3450  -7.1682  -7.0646  -6.8647
    -6.6164  -6.3864  -6.1748  -6.1550  -5.9664  -5.9234  -5.7790  -5.7532
    -5.4481  -5.3892  -5.1826  -5.0537  -4.4198  -4.3708  -4.0814  -3.7631
    -2.8429  -2.0212  -1.9965  -1.8253  -1.6381  -1.6138  -1.5090  -1.4927
    -1.4017  -1.3861  -1.3458  -0.8380   0.7172   1.0280   1.0871   1.1422
     1.2013   1.3729   1.4024   1.8009   1.9071   1.9232

          k = 0.5000 0.0962 0.0000 ( 59291 PWs)   bands (ev):

   -72.8915 -72.8844 -44.4358 -44.3635 -44.2916 -44.2846 -44.2697 -44.2626
   -21.1094 -20.9150 -20.7141 -20.1548 -19.8003 -19.4640 -19.3180 -19.1659
   -19.0110 -18.7753 -18.6270 -18.5462 -18.1327 -18.1012 -17.9152 -17.7194
   -12.3431 -12.1092 -12.0387 -11.9060 -11.6874 -11.6411 -11.5508 -10.9382
   -10.8840 -10.6180 -10.5215  -9.8538  -9.6899  -9.3331  -9.1062  -8.6538
    -8.6189  -8.5470  -8.3954  -8.3874  -8.1553  -8.1002  -8.0708  -8.0350
    -7.6805  -7.6197  -7.4890  -7.4711  -7.3461  -7.1681  -7.0641  -6.8568
    -6.6181  -6.3954  -6.1904  -6.1530  -5.9538  -5.9242  -5.7787  -5.7435
    -5.4485  -5.3940  -5.1828  -5.0534  -4.4161  -4.3740  -4.0823  -3.7629
    -2.8387  -2.0204  -1.9958  -1.8258  -1.6388  -1.6139  -1.5087  -1.4934
    -1.4039  -1.3877  -1.3467  -0.8751   0.7851   1.0293   1.0792   1.1871
     1.2824   1.3442   1.4997   1.7495   1.8333   1.8992

          k =-0.3333 0.3849 0.0000 ( 59291 PWs)   bands (ev):

   -72.8915 -72.8844 -44.4358 -44.3635 -44.2916 -44.2846 -44.2697 -44.2626
   -21.1103 -20.9126 -20.7158 -20.1546 -19.8019 -19.4624 -19.3136 -19.1689
   -19.0136 -18.7738 -18.6284 -18.5453 -18.1350 -18.0985 -17.9154 -17.7196
   -12.3434 -12.1078 -12.0407 -11.9053 -11.6771 -11.6524 -11.5499 -10.9382
   -10.8835 -10.6173 -10.5224  -9.8547  -9.6899  -9.3323  -9.1069  -8.6568
    -8.6180  -8.5490  -8.3863  -8.3832  -8.1570  -8.1075  -8.0590  -8.0474
    -7.6808  -7.6180  -7.4955  -7.4653  -7.3450  -7.1682  -7.0647  -6.8647
    -6.6164  -6.3864  -6.1748  -6.1551  -5.9664  -5.9235  -5.7789  -5.7532
    -5.4480  -5.3892  -5.1826  -5.0537  -4.4198  -4.3708  -4.0814  -3.7631
    -2.8429  -2.0212  -1.9965  -1.8253  -1.6381  -1.6138  -1.5090  -1.4927
    -1.4017  -1.3861  -1.3458  -0.8380   0.7172   1.0280   1.0871   1.1422
     1.2013   1.3729   1.4024   1.8009   1.9072   1.9231

          k =-0.1667-0.0962 0.0000 ( 59226 PWs)   bands (ev):

   -72.8915 -72.8844 -44.4358 -44.3635 -44.2917 -44.2846 -44.2697 -44.2626
   -21.3090 -20.5310 -20.3420 -20.3342 -19.9842 -19.9761 -19.8018 -18.7251
   -18.7175 -18.3723 -18.3618 -18.3513 -18.2674 -18.2549 -18.0740 -18.0668
   -12.5044 -12.4969 -12.4041 -11.5772 -11.5718 -11.4246 -11.4141 -10.9221
   -10.9195  -9.9258  -9.9218  -9.6715  -9.3728  -9.3659  -9.2269  -9.2236
    -9.0384  -9.0359  -8.9197  -8.3203  -8.3168  -7.8976  -7.8945  -7.8769
    -7.8406  -7.7661  -7.6066  -7.5778  -7.1326  -7.0878  -6.9550  -6.8837
    -6.8812  -6.8482  -6.5271  -6.5237  -6.2533  -5.3461  -5.3134  -5.1389
    -5.0612  -4.8067  -4.7929  -4.7463  -4.6191  -4.5957  -4.3505  -4.3278
    -2.8579  -2.0230  -1.9980  -1.8310  -1.6407  -1.6143  -1.5055  -1.4888
    -1.3955  -1.3840  -1.3422  -0.7457   0.8183   0.9010   0.9568   1.1932
     1.2571   1.3411   1.5839   1.5945   1.7039   1.9420

          k =-0.0000-0.1925 0.0000 ( 59226 PWs)   bands (ev):

   -72.8915 -72.8844 -44.4358 -44.3635 -44.2917 -44.2846 -44.2697 -44.2626
   -21.3091 -20.5265 -20.3509 -20.3333 -19.9841 -19.9694 -19.8052 -18.7274
   -18.7119 -18.3817 -18.3751 -18.3471 -18.2520 -18.2503 -18.0800 -18.0655
   -12.5015 -12.5001 -12.4038 -11.5814 -11.5694 -11.4194 -11.4162 -10.9239
   -10.9195  -9.9263  -9.9209  -9.6722  -9.3722  -9.3658  -9.2265  -9.2239
    -9.0376  -9.0372  -8.9203  -8.3203  -8.3156  -7.8963  -7.8950  -7.8596
    -7.8389  -7.7675  -7.6304  -7.5882  -7.1106  -7.0824  -6.9535  -6.8864
    -6.8800  -6.8601  -6.5288  -6.5215  -6.2537  -5.3408  -5.3100  -5.1393
    -5.0607  -4.8385  -4.8000  -4.7452  -4.5916  -4.5847  -4.3562  -4.3314
    -2.8618  -2.0237  -1.9987  -1.8305  -1.6399  -1.6142  -1.5059  -1.4885
    -1.3935  -1.3825  -1.3415  -0.6962   0.6920   0.8466   0.9610   1.1612
     1.2461   1.3740   1.5691   1.6001   1.7199   1.9665

          k = 0.5000-0.8660 0.0000 ( 59292 PWs)   bands (ev):

   -72.8915 -72.8844 -44.4358 -44.3635 -44.2917 -44.2846 -44.2696 -44.2626
   -21.0470 -21.0405 -20.4662 -20.4590 -19.4247 -19.4140 -19.4112 -19.4026
   -18.9892 -18.9835 -18.3208 -18.3197 -18.3153 -18.3032 -17.7904 -17.7835
   -12.0673 -12.0628 -12.0617 -12.0521 -11.8742 -11.8685 -11.3261 -11.3223
   -10.2318 -10.2270 -10.1311 -10.1283 -10.1268 -10.1211  -8.5852  -8.5469
    -8.5435  -8.5406  -8.5399  -8.5331  -7.8598  -7.8588  -7.8550  -7.8538
    -7.8220  -7.8147  -7.7779  -7.7490  -7.4879  -7.4800  -6.6074  -6.6025
    -6.3597  -6.3219  -6.3042  -6.2921  -6.1878  -6.1811  -5.7077  -5.6936
    -5.5426  -5.5365  -4.7214  -4.7085  -4.7067  -4.6841  -3.8836  -3.8644
    -2.8386  -2.0204  -1.9958  -1.8258  -1.6383  -1.6138  -1.5086  -1.4935
    -1.4039  -1.3876  -1.3466  -0.8754   0.7966   1.0524   1.0882   1.1795
     1.3371   1.5757   1.5854   1.6076   1.6749   1.7646

          k =-1.0000 0.0000 0.0000 ( 59292 PWs)   bands (ev):

   -72.8915 -72.8844 -44.4358 -44.3636 -44.2917 -44.2846 -44.2697 -44.2626
   -21.0687 -21.0163 -20.4732 -20.4562 -19.4222 -19.4167 -19.4125 -19.3956
   -19.0075 -18.9671 -18.3561 -18.3402 -18.2831 -18.2801 -17.7949 -17.7805
   -12.0910 -12.0820 -12.0366 -12.0305 -11.8792 -11.8644 -11.3455 -11.3052
   -10.2417 -10.2297 -10.1302 -10.1287 -10.1195 -10.1175  -8.6265  -8.5655
    -8.5579  -8.5184  -8.5181  -8.4886  -7.8695  -7.8682  -7.8544  -7.8511
    -7.8142  -7.8110  -7.7871  -7.7540  -7.5074  -7.4623  -6.6090  -6.5995
    -6.3480  -6.3201  -6.3113  -6.2781  -6.2030  -6.1689  -5.7277  -5.6811
    -5.5603  -5.5186  -4.7984  -4.7370  -4.6508  -4.6380  -3.8871  -3.8622
    -2.8554  -2.0229  -1.9980  -1.8241  -1.6377  -1.6137  -1.5089  -1.4908
    -1.3949  -1.3816  -1.3435  -0.7048   0.5567   0.7929   1.0067   1.1026
     1.2432   1.4626   1.5928   1.6207   1.6435   1.9452

 ------ SPIN DOWN ----------


          k = 0.1667 0.2887 0.0000 ( 59267 PWs)   bands (ev):

   -68.6917 -68.6835 -40.3614 -40.2755 -40.1113 -40.1028 -40.0692 -40.0606
   -21.2384 -20.6542 -20.6456 -20.0980 -20.0863 -19.5816 -19.5724 -19.0911
   -18.6897 -18.6811 -18.4510 -18.4404 -18.1855 -18.0782 -18.0697 -17.8411
   -12.4771 -12.2007 -12.1937 -11.8150 -11.8106 -11.6519 -11.1861 -11.1808
   -10.3847 -10.3609 -10.1114 -10.1071  -9.5827  -9.5807  -8.8217  -8.8143
    -8.8105  -8.7616  -8.7532  -8.5897  -8.1905  -8.0223  -8.0032  -7.8228
    -7.8196  -7.4307  -7.4297  -7.2597  -7.2402  -7.2024  -7.1985  -6.9559
    -6.9466  -6.5393  -6.5272  -6.1471  -6.1455  -5.8514  -5.4112  -5.2691
    -5.2575  -5.1931  -4.8971  -4.8800  -4.4851  -4.3381  -4.3266  -3.9615
    -1.4406   0.3746   0.9246   1.0381   1.1079   1.1476   1.2536   1.3516
     1.3925   1.4973   1.5345   1.5982   1.6312   1.7146   1.9068   1.9399
     2.0330   2.0826   2.1565   2.1886   2.2753   2.3009

          k = 0.1667-0.4811 0.0000 ( 59291 PWs)   bands (ev):

   -68.6917 -68.6835 -40.3615 -40.2755 -40.1112 -40.1028 -40.0692 -40.0606
   -21.1075 -20.9048 -20.7144 -20.1522 -19.7961 -19.4584 -19.3087 -19.1661
   -19.0062 -18.7708 -18.6304 -18.5372 -18.1380 -18.0838 -17.9135 -17.7152
   -12.3411 -12.1063 -12.0380 -11.9000 -11.6744 -11.6513 -11.5460 -10.9351
   -10.8828 -10.6163 -10.5167  -9.8527  -9.6865  -9.3290  -9.1041  -8.6398
    -8.6159  -8.5455  -8.3826  -8.3518  -8.1546  -8.1019  -8.0568  -8.0428
    -7.6809  -7.6165  -7.4873  -7.4675  -7.3344  -7.1636  -7.0612  -6.8404
    -6.6146  -6.3699  -6.1570  -6.1510  -5.9527  -5.9218  -5.7764  -5.7263
    -5.4445  -5.3792  -5.1822  -5.0287  -4.4188  -4.3380  -4.0710  -3.7493
    -1.4310   0.3626   0.9344   0.9843   1.0461   1.0936   1.2073   1.2388
     1.3585   1.4240   1.5394   1.7385   1.7951   1.8314   1.8777   2.0761
     2.1105   2.1336   2.1535   2.2120   2.2841   2.3025

          k = 0.1667-0.0962 0.0000 ( 59226 PWs)   bands (ev):

   -68.6917 -68.6835 -40.3614 -40.2755 -40.1113 -40.1028 -40.0692 -40.0606
   -21.3050 -20.5266 -20.3379 -20.3310 -19.9792 -19.9725 -19.7983 -18.7199
   -18.7136 -18.3674 -18.3581 -18.3473 -18.2626 -18.2505 -18.0697 -18.0635
   -12.5015 -12.4944 -12.4014 -11.5745 -11.5697 -11.4216 -11.4116 -10.9191
   -10.9170  -9.9227  -9.9192  -9.6685  -9.3700  -9.3632  -9.2233  -9.2207
    -9.0356  -9.0333  -8.9007  -8.3167  -8.3137  -7.8949  -7.8916  -7.8547
    -7.8364  -7.7637  -7.5892  -7.5675  -7.1059  -7.0771  -6.9522  -6.8810
    -6.8789  -6.8372  -6.5243  -6.5213  -6.2507  -5.3219  -5.3011  -5.1360
    -5.0583  -4.7892  -4.7750  -4.7339  -4.6027  -4.5837  -4.3337  -4.3181
    -1.4502   0.3888   0.9291   1.0422   1.0785   1.1248   1.1594   1.3073
     1.4805   1.5476   1.5970   1.6347   1.7687   1.8776   1.8891   1.9191
     1.9649   2.0282   2.1088   2.1668   2.2395   2.2962

          k =-0.5000-0.8660 0.0000 ( 59292 PWs)   bands (ev):

   -68.6917 -68.6835 -40.3615 -40.2755 -40.1113 -40.1028 -40.0691 -40.0606
   -21.0443 -21.0352 -20.4620 -20.4556 -19.4189 -19.4106 -19.4071 -19.3989
   -18.9865 -18.9783 -18.3166 -18.3148 -18.3140 -18.2963 -17.7856 -17.7797
   -12.0638 -12.0606 -12.0602 -12.0484 -11.8715 -11.8666 -11.3240 -11.3189
   -10.2286 -10.2245 -10.1276 -10.1249 -10.1238 -10.1187  -8.5553  -8.5424
    -8.5415  -8.5374  -8.5332  -8.5294  -7.8569  -7.8560  -7.8524  -7.8517
    -7.8171  -7.8113  -7.7601  -7.7384  -7.4863  -7.4768  -6.6043  -6.6001
    -6.3279  -6.3020  -6.2941  -6.2819  -6.1854  -6.1778  -5.6896  -5.6832
    -5.5408  -5.5327  -4.7019  -4.6946  -4.6825  -4.6812  -3.8670  -3.8534
    -1.4068   0.1230   0.9512   0.9990   1.1153   1.1451   1.2229   1.3719
     1.5160   1.5462   1.5777   1.7040   1.7392   1.8697   1.9092   1.9540
     1.9756   2.0408   2.1714   2.2147   2.3033   2.3114

          k =-0.1667 0.2887 0.0000 ( 59267 PWs)   bands (ev):

   -68.6917 -68.6835 -40.3614 -40.2755 -40.1113 -40.1028 -40.0692 -40.0606
   -21.2384 -20.6543 -20.6456 -20.0980 -20.0863 -19.5816 -19.5724 -19.0911
   -18.6897 -18.6810 -18.4510 -18.4404 -18.1854 -18.0783 -18.0697 -17.8411
   -12.4771 -12.2007 -12.1937 -11.8150 -11.8106 -11.6519 -11.1861 -11.1808
   -10.3847 -10.3608 -10.1115 -10.1071  -9.5827  -9.5806  -8.8216  -8.8142
    -8.8105  -8.7617  -8.7532  -8.5897  -8.1906  -8.0223  -8.0032  -7.8228
    -7.8196  -7.4307  -7.4297  -7.2597  -7.2402  -7.2024  -7.1984  -6.9560
    -6.9467  -6.5393  -6.5272  -6.1472  -6.1455  -5.8514  -5.4113  -5.2691
    -5.2575  -5.1930  -4.8971  -4.8800  -4.4851  -4.3381  -4.3266  -3.9615
    -1.4406   0.3746   0.9246   1.0382   1.1078   1.1476   1.2536   1.3516
     1.3925   1.4973   1.5345   1.5982   1.6312   1.7146   1.9068   1.9399
     2.0330   2.0826   2.1565   2.1886   2.2753   2.3009

          k = 0.3333 0.0000 0.0000 ( 59267 PWs)   bands (ev):

   -68.6917 -68.6835 -40.3614 -40.2755 -40.1113 -40.1028 -40.0692 -40.0606
   -21.2381 -20.6739 -20.6259 -20.0949 -20.0883 -19.6011 -19.5543 -19.0925
   -18.7018 -18.6655 -18.4493 -18.4434 -18.1821 -18.0954 -18.0572 -17.8406
   -12.4770 -12.1983 -12.1958 -11.8216 -11.8058 -11.6502 -11.2011 -11.1664
   -10.3836 -10.3610 -10.1210 -10.0977  -9.5879  -9.5746  -8.8273  -8.8155
    -8.8026  -8.7780  -8.7372  -8.5905  -8.1917  -8.0666  -7.9588  -7.8215
    -7.8194  -7.4359  -7.4243  -7.2621  -7.2339  -7.2099  -7.1910  -6.9537
    -6.9496  -6.5853  -6.4864  -6.1494  -6.1427  -5.8557  -5.4109  -5.2801
    -5.2392  -5.1935  -4.8990  -4.8803  -4.4785  -4.3591  -4.3139  -3.9608
    -1.4253   0.2042   0.9873   1.0327   1.1226   1.1548   1.1733   1.4039
     1.4753   1.5117   1.5453   1.6748   1.7801   1.8479   1.8925   1.9267
     2.0028   2.0617   2.1216   2.1667   2.2826   2.3572

          k =-0.1667-0.4811 0.0000 ( 59291 PWs)   bands (ev):

   -68.6917 -68.6835 -40.3615 -40.2755 -40.1112 -40.1028 -40.0692 -40.0606
   -21.1075 -20.9048 -20.7144 -20.1522 -19.7961 -19.4584 -19.3087 -19.1661
   -19.0062 -18.7708 -18.6304 -18.5372 -18.1380 -18.0838 -17.9135 -17.7152
   -12.3411 -12.1063 -12.0380 -11.9000 -11.6744 -11.6514 -11.5460 -10.9351
   -10.8828 -10.6163 -10.5166  -9.8527  -9.6865  -9.3290  -9.1041  -8.6398
    -8.6159  -8.5455  -8.3826  -8.3518  -8.1545  -8.1019  -8.0568  -8.0429
    -7.6809  -7.6166  -7.4872  -7.4674  -7.3344  -7.1636  -7.0611  -6.8404
    -6.6146  -6.3699  -6.1570  -6.1511  -5.9528  -5.9217  -5.7764  -5.7263
    -5.4446  -5.3792  -5.1822  -5.0287  -4.4188  -4.3380  -4.0710  -3.7493
    -1.4310   0.3626   0.9344   0.9843   1.0461   1.0936   1.2072   1.2388
     1.3584   1.4240   1.5394   1.7385   1.7951   1.8314   1.8777   2.0760
     2.1105   2.1336   2.1535   2.2119   2.2841   2.3025

          k = 0.5000-0.0962 0.0000 ( 59291 PWs)   bands (ev):

   -68.6917 -68.6835 -40.3614 -40.2755 -40.1113 -40.1028 -40.0692 -40.0606
   -21.1055 -20.9105 -20.7107 -20.1509 -19.7963 -19.4596 -19.3132 -19.1624
   -19.0068 -18.7711 -18.6233 -18.5418 -18.1289 -18.0959 -17.9113 -17.7151
   -12.3404 -12.1066 -12.0364 -11.9031 -11.6843 -11.6395 -11.5479 -10.9353
   -10.8811 -10.6150 -10.5186  -9.8508  -9.6871  -9.3299  -9.1036  -8.6329
    -8.6162  -8.5441  -8.3857  -8.3725  -8.1529  -8.0886  -8.0672  -8.0336
    -7.6781  -7.6171  -7.4865  -7.4685  -7.3298  -7.1648  -7.0615  -6.8406
    -6.6148  -6.3752  -6.1692  -6.1505  -5.9429  -5.9210  -5.7759  -5.7272
    -5.4456  -5.3789  -5.1666  -5.0391  -4.4012  -4.3591  -4.0688  -3.7493
    -1.4070   0.1247   0.9476   1.0075   1.0757   1.1227   1.1884   1.2523
     1.3815   1.6053   1.6908   1.7650   1.8450   1.9085   1.9496   1.9896
     2.0260   2.1053   2.1887   2.2554   2.2845   2.3479

          k =-0.3333-0.3849 0.0000 ( 59291 PWs)   bands (ev):

   -68.6917 -68.6835 -40.3614 -40.2755 -40.1113 -40.1028 -40.0692 -40.0606
   -21.1062 -20.9085 -20.7120 -20.1508 -19.7976 -19.4583 -19.3095 -19.1648
   -19.0090 -18.7699 -18.6243 -18.5411 -18.1306 -18.0939 -17.9114 -17.7152
   -12.3408 -12.1052 -12.0382 -11.9024 -11.6751 -11.6496 -11.5471 -10.9352
   -10.8808 -10.6144 -10.5193  -9.8516  -9.6872  -9.3293  -9.1041  -8.6349
    -8.6153  -8.5457  -8.3836  -8.3650  -8.1544  -8.0936  -8.0568  -8.0444
    -7.6784  -7.6156  -7.4921  -7.4636  -7.3292  -7.1649  -7.0619  -6.8457
    -6.6132  -6.3700  -6.1583  -6.1520  -5.9508  -5.9204  -5.7762  -5.7339
    -5.4453  -5.3757  -5.1669  -5.0390  -4.4036  -4.3569  -4.0684  -3.7494
    -1.4151   0.1915   0.9419   0.9819   1.0767   1.1136   1.2321   1.2659
     1.3456   1.5214   1.6764   1.7635   1.8387   1.9061   1.9300   1.9956
     2.0575   2.0720   2.1374   2.2247   2.2988   2.3222

          k = 0.5000 0.0962 0.0000 ( 59291 PWs)   bands (ev):

   -68.6917 -68.6835 -40.3614 -40.2755 -40.1113 -40.1028 -40.0692 -40.0606
   -21.1055 -20.9105 -20.7107 -20.1509 -19.7963 -19.4596 -19.3132 -19.1624
   -19.0068 -18.7711 -18.6233 -18.5418 -18.1289 -18.0959 -17.9113 -17.7151
   -12.3404 -12.1066 -12.0364 -11.9032 -11.6843 -11.6394 -11.5479 -10.9353
   -10.8811 -10.6150 -10.5186  -9.8508  -9.6871  -9.3298  -9.1036  -8.6329
    -8.6162  -8.5442  -8.3857  -8.3725  -8.1529  -8.0886  -8.0671  -8.0335
    -7.6781  -7.6170  -7.4865  -7.4686  -7.3298  -7.1648  -7.0615  -6.8407
    -6.6147  -6.3752  -6.1692  -6.1504  -5.9429  -5.9210  -5.7760  -5.7273
    -5.4457  -5.3789  -5.1666  -5.0391  -4.4012  -4.3591  -4.0688  -3.7493
    -1.4070   0.1247   0.9476   1.0076   1.0757   1.1227   1.1884   1.2523
     1.3815   1.6053   1.6908   1.7650   1.8450   1.9085   1.9496   1.9896
     2.0260   2.1053   2.1887   2.2555   2.2844   2.3478

          k =-0.3333 0.3849 0.0000 ( 59291 PWs)   bands (ev):

   -68.6917 -68.6835 -40.3614 -40.2755 -40.1113 -40.1028 -40.0692 -40.0606
   -21.1062 -20.9085 -20.7120 -20.1508 -19.7976 -19.4583 -19.3095 -19.1648
   -19.0090 -18.7699 -18.6243 -18.5411 -18.1306 -18.0939 -17.9114 -17.7152
   -12.3407 -12.1052 -12.0382 -11.9024 -11.6752 -11.6496 -11.5470 -10.9352
   -10.8808 -10.6144 -10.5193  -9.8516  -9.6871  -9.3293  -9.1041  -8.6349
    -8.6154  -8.5457  -8.3836  -8.3650  -8.1544  -8.0936  -8.0569  -8.0444
    -7.6784  -7.6156  -7.4921  -7.4636  -7.3292  -7.1649  -7.0620  -6.8457
    -6.6133  -6.3700  -6.1583  -6.1520  -5.9508  -5.9205  -5.7762  -5.7339
    -5.4452  -5.3757  -5.1669  -5.0390  -4.4036  -4.3569  -4.0684  -3.7494
    -1.4151   0.1915   0.9419   0.9818   1.0767   1.1136   1.2321   1.2659
     1.3456   1.5214   1.6764   1.7634   1.8387   1.9061   1.9299   1.9955
     2.0575   2.0720   2.1374   2.2247   2.2987   2.3222

          k =-0.1667-0.0962 0.0000 ( 59226 PWs)   bands (ev):

   -68.6917 -68.6835 -40.3614 -40.2755 -40.1113 -40.1028 -40.0692 -40.0606
   -21.3050 -20.5265 -20.3379 -20.3310 -19.9793 -19.9725 -19.7983 -18.7199
   -18.7136 -18.3674 -18.3581 -18.3473 -18.2626 -18.2505 -18.0697 -18.0635
   -12.5015 -12.4944 -12.4014 -11.5744 -11.5697 -11.4216 -11.4116 -10.9191
   -10.9170  -9.9228  -9.9192  -9.6684  -9.3700  -9.3632  -9.2233  -9.2208
    -9.0356  -9.0334  -8.9007  -8.3167  -8.3138  -7.8949  -7.8916  -7.8547
    -7.8364  -7.7638  -7.5892  -7.5675  -7.1059  -7.0771  -6.9523  -6.8810
    -6.8789  -6.8372  -6.5243  -6.5213  -6.2507  -5.3219  -5.3011  -5.1359
    -5.0584  -4.7892  -4.7750  -4.7339  -4.6027  -4.5837  -4.3337  -4.3181
    -1.4502   0.3888   0.9291   1.0422   1.0785   1.1248   1.1594   1.3073
     1.4805   1.5476   1.5970   1.6347   1.7687   1.8776   1.8892   1.9190
     1.9649   2.0282   2.1087   2.1669   2.2395   2.2962

          k =-0.0000-0.1925 0.0000 ( 59226 PWs)   bands (ev):

   -68.6917 -68.6835 -40.3614 -40.2754 -40.1113 -40.1028 -40.0692 -40.0606
   -21.3051 -20.5227 -20.3461 -20.3294 -19.9800 -19.9661 -19.8011 -18.7227
   -18.7082 -18.3751 -18.3693 -18.3432 -18.2495 -18.2476 -18.0755 -18.0614
   -12.4990 -12.4972 -12.4011 -11.5785 -11.5670 -11.4170 -11.4135 -10.9209
   -10.9167  -9.9234  -9.9182  -9.6690  -9.3692  -9.3633  -9.2233  -9.2208
    -9.0350  -9.0343  -8.9011  -8.3171  -8.3124  -7.8938  -7.8925  -7.8451
    -7.8325  -7.7648  -7.6059  -7.5740  -7.0944  -7.0699  -6.9510  -6.8836
    -6.8775  -6.8457  -6.5261  -6.5191  -6.2510  -5.3211  -5.2959  -5.1364
    -5.0579  -4.8092  -4.7830  -4.7317  -4.5833  -4.5771  -4.3401  -4.3178
    -1.4574   0.5201   0.8885   1.0080   1.0774   1.1293   1.1995   1.2528
     1.4360   1.5187   1.5268   1.5915   1.7330   1.8573   1.8621   1.9195
     2.0530   2.0596   2.1385   2.1434   2.1997   2.2900

          k = 0.5000-0.8660 0.0000 ( 59292 PWs)   bands (ev):

   -68.6917 -68.6835 -40.3615 -40.2755 -40.1113 -40.1028 -40.0691 -40.0606
   -21.0443 -21.0351 -20.4620 -20.4556 -19.4189 -19.4106 -19.4071 -19.3989
   -18.9866 -18.9782 -18.3166 -18.3149 -18.3141 -18.2962 -17.7856 -17.7797
   -12.0638 -12.0606 -12.0602 -12.0483 -11.8715 -11.8666 -11.3240 -11.3188
   -10.2286 -10.2246 -10.1276 -10.1250 -10.1238 -10.1187  -8.5553  -8.5424
    -8.5416  -8.5373  -8.5332  -8.5293  -7.8569  -7.8560  -7.8524  -7.8517
    -7.8172  -7.8113  -7.7601  -7.7384  -7.4864  -7.4768  -6.6043  -6.6001
    -6.3279  -6.3020  -6.2940  -6.2820  -6.1854  -6.1776  -5.6897  -5.6832
    -5.5409  -5.5327  -4.7019  -4.6946  -4.6824  -4.6812  -3.8670  -3.8534
    -1.4068   0.1230   0.9513   0.9990   1.1153   1.1451   1.2229   1.3719
     1.5160   1.5462   1.5776   1.7040   1.7392   1.8697   1.9093   1.9540
     1.9756   2.0408   2.1714   2.2148   2.3034   2.3118

          k =-1.0000 0.0000 0.0000 ( 59292 PWs)   bands (ev):

   -68.6917 -68.6835 -40.3615 -40.2755 -40.1113 -40.1028 -40.0692 -40.0606
   -21.0628 -21.0145 -20.4686 -20.4525 -19.4178 -19.4123 -19.4084 -19.3925
   -19.0011 -18.9652 -18.3478 -18.3331 -18.2820 -18.2793 -17.7901 -17.7764
   -12.0873 -12.0774 -12.0356 -12.0294 -11.8765 -11.8624 -11.3412 -11.3035
   -10.2377 -10.2266 -10.1270 -10.1256 -10.1170 -10.1154  -8.5947  -8.5614
    -8.5541  -8.5175  -8.5167  -8.4847  -7.8662  -7.8647  -7.8518  -7.8485
    -7.8084  -7.8072  -7.7690  -7.7406  -7.5035  -7.4611  -6.6061  -6.5971
    -6.3231  -6.3014  -6.2987  -6.2693  -6.1987  -6.1667  -5.7094  -5.6682
    -5.5559  -5.5175  -4.7627  -4.7163  -4.6476  -4.6362  -3.8716  -3.8498
    -1.4386   0.4833   0.9339   1.0208   1.0426   1.0729   1.2400   1.2549
     1.3434   1.3550   1.6248   1.6402   1.6759   1.8154   1.8218   1.8440
     2.1214   2.1495   2.1502   2.1855   2.2890   2.2970

     the Fermi energy is    -1.1700 ev

!    total energy              =   -1133.82745678 Ry

     total all-electron energy =     -6753.503160 Ry
     estimated scf accuracy    <       0.00000001 Ry
     smearing contrib. (-TS)   =      -0.00000000 Ry
     internal energy E=F+TS    =   -1133.82745678 Ry

     The total energy is F=E-TS. E is the sum of the following terms:
     one-electron contribution =   -3951.70197876 Ry
     hartree contribution      =    2004.05538205 Ry
     xc contribution           =    -186.01980097 Ry
     ewald contribution        =    1359.21552041 Ry
     DFT-D3 Dispersion         =      -0.13417180 Ry
     one-center paw contrib.   =    -359.24240770 Ry

     total magnetization       =    10.00 Bohr mag/cell
     absolute magnetization    =    10.01 Bohr mag/cell

     convergence has been achieved in  15 iterations

     Writing output data file ./mytmp/Crdimer0.143-0.2.save/
 
     init_run     :     18.58s CPU     19.67s WALL (       1 calls)
     electrons    :    570.92s CPU    618.41s WALL (       1 calls)

     Called by init_run:
     wfcinit      :     13.54s CPU     14.12s WALL (       1 calls)
     potinit      :      1.51s CPU      1.59s WALL (       1 calls)
     hinit0       :      1.51s CPU      1.62s WALL (       1 calls)

     Called by electrons:
     c_bands      :    447.67s CPU    474.87s WALL (      15 calls)
     sum_band     :     87.43s CPU     99.17s WALL (      15 calls)
     v_of_rho     :      7.92s CPU      8.89s WALL (      16 calls)
     newd         :     19.51s CPU     26.91s WALL (      16 calls)
     PAW_pot      :      7.84s CPU      8.00s WALL (      16 calls)
     mix_rho      :      1.08s CPU      1.21s WALL (      15 calls)

     Called by c_bands:
     init_us_2    :      5.34s CPU      5.37s WALL (     930 calls)
     cegterg      :    434.46s CPU    461.58s WALL (     450 calls)

     Called by *egterg:
     cdiaghg      :     27.45s CPU     43.05s WALL (    2973 calls)
     h_psi        :    259.79s CPU    269.66s WALL (    3003 calls)
     s_psi        :     29.21s CPU     29.28s WALL (    3003 calls)
     g_psi        :      0.70s CPU      0.71s WALL (    2523 calls)

     Called by h_psi:
     h_psi:calbec :     31.04s CPU     31.70s WALL (    3003 calls)
     vloc_psi     :    197.05s CPU    206.13s WALL (    3003 calls)
     add_vuspsi   :     29.29s CPU     29.40s WALL (    3003 calls)

     General routines
     calbec       :     41.32s CPU     42.20s WALL (    3453 calls)
     fft          :     10.10s CPU     15.04s WALL (     394 calls)
     ffts         :      0.14s CPU      0.17s WALL (      62 calls)
     fftw         :    203.08s CPU    212.31s WALL (  265402 calls)
     interpolate  :      0.44s CPU      0.53s WALL (      32 calls)
 
     Parallel routines
     fft_scatt_xy :     33.26s CPU     34.48s WALL (  265858 calls)
     fft_scatt_yz :     84.68s CPU     94.09s WALL (  265858 calls)
 
     PWSCF        :   9m51.46s CPU  10m42.78s WALL

 
   This run was terminated on:  15:11:23   2Apr2021            

=------------------------------------------------------------------------------=
   JOB DONE.
=------------------------------------------------------------------------------=
