
     Program PWSCF v.6.7MaX starts on  2Apr2021 at 12: 9:25 

     This program is part of the open-source Quantum ESPRESSO suite
     for quantum simulation of materials; please cite
         "P. Giannozzi et al., J. Phys.:Condens. Matter 21 395502 (2009);
         "P. Giannozzi et al., J. Phys.:Condens. Matter 29 465901 (2017);
          URL http://www.quantum-espresso.org", 
     in publications or presentations arising from this work. More details at
     http://www.quantum-espresso.org/quote

     Parallel version (MPI), running on    48 processors

     MPI processes distributed on     1 nodes
     R & G space division:  proc/nbgrp/npool/nimage =      48
     Reading input from Crdimer0.141-0.2.scf.in

     Current dimensions of program PWSCF are:
     Max number of different atomic species (ntypx) = 10
     Max number of k-points (npk) =  40000
     Max angular momentum in pseudopotentials (lmaxx) =  3
     file N.pbe-n-kjpaw_psl.1.0.0.UPF: wavefunction(s)  2S renormalized
     file Cr.pbe-spn-kjpaw_psl.1.0.0.UPF: wavefunction(s)  3S 3P 3D renormalized
     file Cr.pbe-spn-kjpaw_psl.1.0.0.UPF: wavefunction(s)  3S 3P 3D renormalized

     --------------------------------------------
     Parameters for DFT-D3 Dispersion Correction:
     --------------------------------------------
       Reference C6 values for interpolation: 

         atom   Coordination number   C6
         B          0.000           214.36
         B          0.971           150.74
         B          1.944           106.23
         B          2.913            62.89
         B          4.586            56.06
         N          0.000            50.54
         N          0.994            44.25
         N          2.014            39.35
         N          2.990            31.16
         Cr1        0.000          1381.48
         Cr1        1.827           571.38
         Cr1       10.619           306.69
         Cr2        0.000          1381.48
         Cr2        1.827           571.38
         Cr2       10.619           306.69

       Values used:

         atom   Coordination number  R0_AB[au]  C6      C8
         B          3.338            3.039     62.89   2505.93
         B          3.335            3.039     62.89   2506.01
         B          3.343            3.039     62.89   2505.81
         B          3.336            3.039     62.89   2506.00
         B          3.380            3.039     62.86   2504.75
         B          3.335            3.039     62.89   2506.00
         N          3.134            2.478     31.22    688.69
         N          3.135            2.478     31.22    688.69
         N          3.152            2.478     31.21    688.54
         N          3.136            2.478     31.22    688.68
         N          3.145            2.478     31.21    688.60
         N          3.134            2.478     31.22    688.70
         N          3.142            2.478     31.21    688.62
         N          3.134            2.478     31.22    688.70
         N          3.135            2.478     31.22    688.69
         B          3.337            3.039     62.89   2505.97
         B          3.335            3.039     62.89   2506.01
         B          3.335            3.039     62.89   2506.00
         B          3.380            3.039     62.86   2504.75
         B          3.338            3.039     62.89   2505.93
         B          3.337            3.039     62.89   2505.97
         N          3.142            2.478     31.21    688.62
         B          3.335            3.039     62.89   2506.01
         B          3.338            3.039     62.89   2505.95
         B          3.341            3.039     62.89   2505.87
         N          3.134            2.478     31.22    688.70
         N          3.135            2.478     31.22    688.69
         N          3.134            2.478     31.22    688.69
         N          3.134            2.478     31.22    688.69
         N          3.152            2.478     31.21    688.54
         N          3.136            2.478     31.22    688.68
         B          3.341            3.039     62.89   2505.87
         Cr1        0.752            3.252   1293.76 119399.78
         Cr2        0.752            3.252   1293.76 119399.78

         Molecular C6 ( Ry / a.u.^6 ) =     78151.72


     Subspace diagonalization in iterative solution of the eigenvalue problem:
     one sub-group per band group will be used
     scalapack distributed-memory algorithm (size of sub-group:  6*  6 procs)

 
     Parallelization info
     --------------------
     sticks:   dense  smooth     PW     G-vecs:    dense   smooth      PW
     Min         235      98     26                36277     9874    1408
     Max         236      99     27                36282     9883    1425
     Sum       11311    4741   1285              1741401   474235   68095
 


     bravais-lattice index     =            4
     lattice parameter (alat)  =      18.9275  a.u.
     unit-cell volume          =   10553.3021 (a.u.)^3
     number of atoms/cell      =           34
     number of atomic types    =            4
     number of electrons       =       156.00
     number of Kohn-Sham states=           94
     kinetic-energy cutoff     =      48.0000  Ry
     charge density cutoff     =     457.0000  Ry
     scf convergence threshold =      1.0E-07
     mixing beta               =       0.5000
     number of iterations used =            8  plain     mixing
     Exchange-correlation= SLA  PW   PBX  PBC
                           (   1   4   3   4   0   0   0)

     celldm(1)=  18.927497  celldm(2)=   0.000000  celldm(3)=   1.797125
     celldm(4)=   0.000000  celldm(5)=   0.000000  celldm(6)=   0.000000

     crystal axes: (cart. coord. in units of alat)
               a(1) = (   1.000000   0.000000   0.000000 )  
               a(2) = (  -0.500000   0.866025   0.000000 )  
               a(3) = (   0.000000   0.000000   1.797125 )  

     reciprocal axes: (cart. coord. in units 2 pi/alat)
               b(1) = (  1.000000  0.577350  0.000000 )  
               b(2) = (  0.000000  1.154701  0.000000 )  
               b(3) = (  0.000000  0.000000  0.556444 )  


     PseudoPot. # 1 for B  read from file:
     /home/sf05/q-e-qe-6.7MaX-Release/pseudo/B.pbe-n-kjpaw_psl.1.0.0.UPF
     MD5 check sum: d9c678ba5d3b2fd7b74e61139c9288d8
     Pseudo is Projector augmented-wave + core cor, Zval =  3.0
     Generated using "atomic" code by A. Dal Corso  v.5.1.2
     Shape of augmentation charge: PSQ
     Using radial grid of 1059 points,  4 beta functions with: 
                l(1) =   0
                l(2) =   0
                l(3) =   1
                l(4) =   1
     Q(r) pseudized with 0 coefficients 


     PseudoPot. # 2 for N  read from file:
     /home/sf05/q-e-qe-6.7MaX-Release/pseudo/N.pbe-n-kjpaw_psl.1.0.0.UPF
     MD5 check sum: e0e4e94a9c4025c5b51bd7d8793849bd
     Pseudo is Projector augmented-wave + core cor, Zval =  5.0
     Generated using "atomic" code by A. Dal Corso  v.5.1.2
     Shape of augmentation charge: PSQ
     Using radial grid of 1085 points,  4 beta functions with: 
                l(1) =   0
                l(2) =   0
                l(3) =   1
                l(4) =   1
     Q(r) pseudized with 0 coefficients 


     PseudoPot. # 3 for Cr read from file:
     /home/sf05/q-e-qe-6.7MaX-Release/pseudo/Cr.pbe-spn-kjpaw_psl.1.0.0.UPF
     MD5 check sum: 198f1a2427a48552563eee314eba32ba
     Pseudo is Projector augmented-wave + core cor, Zval = 14.0
     Generated using &quot;atomic&quot; code by A. Dal Corso  v.6.3
     Shape of augmentation charge: PSQ
     Using radial grid of 1183 points,  6 beta functions with: 
                l(1) =   0
                l(2) =   0
                l(3) =   1
                l(4) =   1
                l(5) =   2
                l(6) =   2
     Q(r) pseudized with 0 coefficients 


     PseudoPot. # 4 for Cr read from file:
     /home/sf05/q-e-qe-6.7MaX-Release/pseudo/Cr.pbe-spn-kjpaw_psl.1.0.0.UPF
     MD5 check sum: 198f1a2427a48552563eee314eba32ba
     Pseudo is Projector augmented-wave + core cor, Zval = 14.0
     Generated using &quot;atomic&quot; code by A. Dal Corso  v.6.3
     Shape of augmentation charge: PSQ
     Using radial grid of 1183 points,  6 beta functions with: 
                l(1) =   0
                l(2) =   0
                l(3) =   1
                l(4) =   1
                l(5) =   2
                l(6) =   2
     Q(r) pseudized with 0 coefficients 


     atomic species   valence    mass     pseudopotential
        B              3.00    10.81100     B ( 1.00)
        N              5.00    14.00674     N ( 1.00)
        Cr1           14.00    51.99610     Cr( 1.00)
        Cr2           14.00    51.99610     Cr( 1.00)

     Starting magnetic structure 
     atomic species   magnetization
        B            0.000
        N            0.000
        Cr1          1.000
        Cr2          1.000

     No symmetry found



   Cartesian axes

     site n.     atom                  positions (alat units)
         1           B   tau(   1) = (  -0.1250000   0.2165064   0.8985623  )
         2           B   tau(   2) = (   0.3750000   0.6495191   0.8985623  )
         3           B   tau(   3) = (   0.2500000   0.0000000   0.8985623  )
         4           B   tau(   4) = (   0.7500000   0.0000000   0.8985623  )
         5           B   tau(   5) = (   0.1250000   0.2165064   0.8985623  )
         6           B   tau(   6) = (  -0.3750000   0.6495191   0.8985623  )
         7           N   tau(   7) = (   0.7500005   0.2886748   0.8985623  )
         8           N   tau(   8) = (   0.3750005   0.5051812   0.8985623  )
         9           N   tau(   9) = (   0.3750005   0.0721685   0.8985623  )
        10           N   tau(  10) = (   0.6250005   0.0721685   0.8985623  )
        11           N   tau(  11) = (   0.2500005   0.2886748   0.8985623  )
        12           N   tau(  12) = (   0.6250005   0.5051812   0.8985623  )
        13           N   tau(  13) = (   0.0000005   0.2886748   0.8985623  )
        14           N   tau(  14) = (   0.2500005   0.7216875   0.8985623  )
        15           N   tau(  15) = (  -0.2499995   0.7216875   0.8985623  )
        16           B   tau(  16) = (   0.0000000   0.4330127   0.8985623  )
        17           B   tau(  17) = (   0.1250000   0.6495191   0.8985623  )
        18           B   tau(  18) = (  -0.1250000   0.6495191   0.8985623  )
        19           B   tau(  19) = (   0.3750000   0.2165064   0.8985623  )
        20           B   tau(  20) = (   0.6250000   0.2165064   0.8985623  )
        21           B   tau(  21) = (   0.5000000   0.4330127   0.8985623  )
        22           N   tau(  22) = (   0.5000005   0.2886748   0.8985623  )
        23           B   tau(  23) = (  -0.2500000   0.4330127   0.8985623  )
        24           B   tau(  24) = (   0.2500000   0.4330127   0.8985623  )
        25           B   tau(  25) = (   0.5000000   0.0000000   0.8985623  )
        26           N   tau(  26) = (  -0.1249995   0.5051812   0.8985623  )
        27           N   tau(  27) = (   0.1250005   0.5051812   0.8985623  )
        28           N   tau(  28) = (   0.0000005   0.7216875   0.8985623  )
        29           N   tau(  29) = (   0.5000005   0.7216875   0.8985623  )
        30           N   tau(  30) = (   0.1250005   0.0721685   0.8985623  )
        31           N   tau(  31) = (   0.8750005   0.0721685   0.8985623  )
        32           B   tau(  32) = (   0.0000000   0.0000000   0.8985623  )
        33           Cr1 tau(  33) = (   0.3910000   0.1732051   1.2040735  )
        34           Cr2 tau(  34) = (   0.1090000   0.1732051   1.2040735  )

     number of k points=    15  Gaussian smearing, width (Ry)=  0.0000
                       cart. coord. in units 2pi/alat
        k(    1) = (   0.1666667   0.2886751   0.0000000), wk =   0.0740741
        k(    2) = (   0.1666667  -0.4811252   0.0000000), wk =   0.0740741
        k(    3) = (   0.1666667  -0.0962250   0.0000000), wk =   0.0740741
        k(    4) = (  -0.5000000  -0.8660254   0.0000000), wk =   0.0370370
        k(    5) = (  -0.1666667   0.2886751   0.0000000), wk =   0.0740741
        k(    6) = (   0.3333333   0.0000000   0.0000000), wk =   0.0740741
        k(    7) = (  -0.1666667  -0.4811252   0.0000000), wk =   0.0740741
        k(    8) = (   0.5000000  -0.0962250   0.0000000), wk =   0.0740741
        k(    9) = (  -0.3333333  -0.3849002   0.0000000), wk =   0.0740741
        k(   10) = (   0.5000000   0.0962250   0.0000000), wk =   0.0740741
        k(   11) = (  -0.3333333   0.3849002   0.0000000), wk =   0.0740741
        k(   12) = (  -0.1666667  -0.0962250   0.0000000), wk =   0.0740741
        k(   13) = (  -0.0000000  -0.1924501   0.0000000), wk =   0.0740741
        k(   14) = (   0.5000000  -0.8660254   0.0000000), wk =   0.0370370
        k(   15) = (  -1.0000000   0.0000000   0.0000000), wk =   0.0370370

     Dense  grid:  1741401 G-vectors     FFT dimensions: ( 135, 135, 240)

     Smooth grid:   474235 G-vectors     FFT dimensions: (  90,  90, 160)

     Estimated max dynamical RAM per process >     218.62 MB

     Estimated total dynamical RAM >      10.25 GB
     Generating pointlists ...
     new r_m :   0.0595 (alat units)  1.1269 (a.u.) for type    1
     new r_m :   0.0595 (alat units)  1.1269 (a.u.) for type    2
     new r_m :   0.1163 (alat units)  2.2017 (a.u.) for type    3
     new r_m :   0.1163 (alat units)  2.2017 (a.u.) for type    4

     Initial potential from superposition of free atoms

     starting charge  155.99382, renormalised to  156.00000

     negative rho (up, down):  6.711E-03 4.655E-04
     Starting wfcs are  148 randomized atomic wfcs
     Checking if some PAW data can be deallocated... 

     total cpu time spent up to now is       20.3 secs

     Self-consistent Calculation

     iteration #  1     ecut=    48.00 Ry     beta= 0.50
     Davidson diagonalization with overlap
     ethr =  1.00E-02,  avg # of iterations =  2.8

     negative rho (up, down):  4.895E-03 2.905E-03

     total cpu time spent up to now is       60.3 secs

     total energy              =   -1130.73130938 Ry
     estimated scf accuracy    <      11.37761934 Ry

     total magnetization       =    12.00 Bohr mag/cell
     absolute magnetization    =    12.12 Bohr mag/cell

     iteration #  2     ecut=    48.00 Ry     beta= 0.50
     Davidson diagonalization with overlap
     ethr =  7.29E-03,  avg # of iterations =  2.8

     negative rho (up, down):  8.366E-03 7.537E-03

     total cpu time spent up to now is       97.6 secs

     total energy              =   -1132.99670116 Ry
     estimated scf accuracy    <       3.59120694 Ry

     total magnetization       =    10.00 Bohr mag/cell
     absolute magnetization    =    10.11 Bohr mag/cell

     iteration #  3     ecut=    48.00 Ry     beta= 0.50
     Davidson diagonalization with overlap
     ethr =  2.30E-03,  avg # of iterations =  6.9

     negative rho (up, down):  3.690E-03 3.600E-03

     total cpu time spent up to now is      134.9 secs

     total energy              =   -1133.57906233 Ry
     estimated scf accuracy    <       0.76907126 Ry

     total magnetization       =    11.78 Bohr mag/cell
     absolute magnetization    =    11.84 Bohr mag/cell

     iteration #  4     ecut=    48.00 Ry     beta= 0.50
     Davidson diagonalization with overlap
     ethr =  4.93E-04,  avg # of iterations =  6.5

     negative rho (up, down):  7.041E-03 7.840E-03

     total cpu time spent up to now is      171.1 secs

     total energy              =   -1133.77306573 Ry
     estimated scf accuracy    <       0.50593410 Ry

     total magnetization       =    10.00 Bohr mag/cell
     absolute magnetization    =    10.01 Bohr mag/cell

     iteration #  5     ecut=    48.00 Ry     beta= 0.50
     Davidson diagonalization with overlap
     ethr =  3.24E-04,  avg # of iterations =  6.3

     negative rho (up, down):  4.632E-03 4.606E-03

     total cpu time spent up to now is      209.0 secs

     total energy              =   -1133.81283331 Ry
     estimated scf accuracy    <       0.04610664 Ry

     total magnetization       =    10.00 Bohr mag/cell
     absolute magnetization    =    10.02 Bohr mag/cell

     iteration #  6     ecut=    48.00 Ry     beta= 0.50
     Davidson diagonalization with overlap
     ethr =  2.96E-05,  avg # of iterations =  9.6

     negative rho (up, down):  3.737E-03 3.980E-03

     total cpu time spent up to now is      253.7 secs

     total energy              =   -1133.82133625 Ry
     estimated scf accuracy    <       0.03205076 Ry

     total magnetization       =    10.00 Bohr mag/cell
     absolute magnetization    =    10.02 Bohr mag/cell

     iteration #  7     ecut=    48.00 Ry     beta= 0.50
     Davidson diagonalization with overlap
     ethr =  2.05E-05,  avg # of iterations =  6.4

     negative rho (up, down):  3.314E-03 3.791E-03

     total cpu time spent up to now is      289.3 secs

     total energy              =   -1133.82659064 Ry
     estimated scf accuracy    <       0.00248913 Ry

     total magnetization       =    10.00 Bohr mag/cell
     absolute magnetization    =    10.01 Bohr mag/cell

     iteration #  8     ecut=    48.00 Ry     beta= 0.50
     Davidson diagonalization with overlap
     ethr =  1.60E-06,  avg # of iterations =  8.3

     negative rho (up, down):  3.220E-03 3.757E-03

     total cpu time spent up to now is      330.8 secs

     total energy              =   -1133.82749953 Ry
     estimated scf accuracy    <       0.00044726 Ry

     total magnetization       =    10.00 Bohr mag/cell
     absolute magnetization    =    10.01 Bohr mag/cell

     iteration #  9     ecut=    48.00 Ry     beta= 0.50
     Davidson diagonalization with overlap
     ethr =  2.87E-07,  avg # of iterations =  3.7

     negative rho (up, down):  3.149E-03 3.747E-03

     total cpu time spent up to now is      362.7 secs

     total energy              =   -1133.82768113 Ry
     estimated scf accuracy    <       0.00009728 Ry

     total magnetization       =    10.00 Bohr mag/cell
     absolute magnetization    =    10.01 Bohr mag/cell

     iteration # 10     ecut=    48.00 Ry     beta= 0.50
     Davidson diagonalization with overlap
     ethr =  6.24E-08,  avg # of iterations =  3.5

     negative rho (up, down):  3.142E-03 3.766E-03

     total cpu time spent up to now is      399.2 secs

     total energy              =   -1133.82775573 Ry
     estimated scf accuracy    <       0.00002039 Ry

     total magnetization       =    10.00 Bohr mag/cell
     absolute magnetization    =    10.01 Bohr mag/cell

     iteration # 11     ecut=    48.00 Ry     beta= 0.50
     Davidson diagonalization with overlap
     ethr =  1.31E-08,  avg # of iterations =  4.4

     negative rho (up, down):  3.132E-03 3.779E-03

     total cpu time spent up to now is      432.3 secs

     total energy              =   -1133.82777916 Ry
     estimated scf accuracy    <       0.00000613 Ry

     total magnetization       =    10.00 Bohr mag/cell
     absolute magnetization    =    10.01 Bohr mag/cell

     iteration # 12     ecut=    48.00 Ry     beta= 0.50
     Davidson diagonalization with overlap
     ethr =  3.93E-09,  avg # of iterations =  4.6

     negative rho (up, down):  3.127E-03 3.791E-03

     total cpu time spent up to now is      465.1 secs

     total energy              =   -1133.82778615 Ry
     estimated scf accuracy    <       0.00000109 Ry

     total magnetization       =    10.00 Bohr mag/cell
     absolute magnetization    =    10.01 Bohr mag/cell

     iteration # 13     ecut=    48.00 Ry     beta= 0.50
     Davidson diagonalization with overlap
     ethr =  7.00E-10,  avg # of iterations =  5.0

     negative rho (up, down):  3.123E-03 3.795E-03

     total cpu time spent up to now is      500.1 secs

     total energy              =   -1133.82778893 Ry
     estimated scf accuracy    <       0.00000028 Ry

     total magnetization       =    10.00 Bohr mag/cell
     absolute magnetization    =    10.01 Bohr mag/cell

     iteration # 14     ecut=    48.00 Ry     beta= 0.50
     Davidson diagonalization with overlap
     ethr =  1.80E-10,  avg # of iterations =  4.8

     negative rho (up, down):  3.121E-03 3.796E-03
 
     Magnetic moment per site:
     atom:    1    charge:    0.8809    magn:    0.0003    constr:    0.0000
     atom:    2    charge:    0.8803    magn:    0.0001    constr:    0.0000
     atom:    3    charge:    0.8795    magn:    0.0008    constr:    0.0000
     atom:    4    charge:    0.8806    magn:    0.0002    constr:    0.0000
     atom:    5    charge:    0.8806    magn:    0.0002    constr:    0.0000
     atom:    6    charge:    0.8802    magn:    0.0001    constr:    0.0000
     atom:    7    charge:    2.8611    magn:    0.0001    constr:    0.0000
     atom:    8    charge:    2.8608    magn:    0.0005    constr:    0.0000
     atom:    9    charge:    2.8607    magn:    0.0073    constr:    0.0000
     atom:   10    charge:    2.8609    magn:    0.0011    constr:    0.0000
     atom:   11    charge:    2.8603    magn:    0.0062    constr:    0.0000
     atom:   12    charge:    2.8610    magn:    0.0001    constr:    0.0000
     atom:   13    charge:    2.8597    magn:    0.0043    constr:    0.0000
     atom:   14    charge:    2.8599    magn:    0.0003    constr:    0.0000
     atom:   15    charge:    2.8598    magn:    0.0004    constr:    0.0000
     atom:   16    charge:    0.8800    magn:    0.0005    constr:    0.0000
     atom:   17    charge:    0.8800    magn:    0.0001    constr:    0.0000
     atom:   18    charge:    0.8799    magn:    0.0001    constr:    0.0000
     atom:   19    charge:    0.8800    magn:    0.0002    constr:    0.0000
     atom:   20    charge:    0.8803    magn:    0.0003    constr:    0.0000
     atom:   21    charge:    0.8798    magn:    0.0005    constr:    0.0000
     atom:   22    charge:    2.8610    magn:    0.0043    constr:    0.0000
     atom:   23    charge:    0.8801    magn:    0.0002    constr:    0.0000
     atom:   24    charge:    0.8796    magn:    0.0004    constr:    0.0000
     atom:   25    charge:    0.8802    magn:    0.0003    constr:    0.0000
     atom:   26    charge:    2.8598    magn:    0.0001    constr:    0.0000
     atom:   27    charge:    2.8597    magn:    0.0005    constr:    0.0000
     atom:   28    charge:    2.8597    magn:    0.0005    constr:    0.0000
     atom:   29    charge:    2.8596    magn:    0.0005    constr:    0.0000
     atom:   30    charge:    2.8594    magn:    0.0073    constr:    0.0000
     atom:   31    charge:    2.8596    magn:    0.0011    constr:    0.0000
     atom:   32    charge:    0.8804    magn:    0.0003    constr:    0.0000
     atom:   33    charge:   12.5077    magn:    4.2291    constr:    0.0000
     atom:   34    charge:   12.5077    magn:    4.2292    constr:    0.0000

     total cpu time spent up to now is      534.0 secs

     End of self-consistent calculation

 ------ SPIN UP ------------


          k = 0.1667 0.2887 0.0000 ( 59267 PWs)   bands (ev):

   -72.8927 -72.8841 -44.4437 -44.3600 -44.2916 -44.2834 -44.2699 -44.2616
   -21.2414 -20.6559 -20.6499 -20.1011 -20.0892 -19.5829 -19.5770 -19.0942
   -18.6920 -18.6857 -18.4542 -18.4435 -18.1894 -18.0806 -18.0731 -17.8445
   -12.4787 -12.2025 -12.1953 -11.8165 -11.8121 -11.6532 -11.1870 -11.1835
   -10.3867 -10.3627 -10.1129 -10.1097  -9.5840  -9.5828  -8.8345  -8.8195
    -8.8161  -8.7621  -8.7559  -8.5912  -8.1919  -8.0475  -8.0110  -7.8244
    -7.8211  -7.4331  -7.4320  -7.2783  -7.2538  -7.2033  -7.2005  -6.9575
    -6.9481  -6.5617  -6.5337  -6.1488  -6.1473  -5.8673  -5.4134  -5.2919
    -5.2692  -5.1949  -4.9111  -4.8924  -4.5019  -4.3520  -4.3361  -3.9750
    -2.8913  -2.0504  -2.0259  -1.8465  -1.6443  -1.6192  -1.5006  -1.4815
    -1.3834  -1.3664  -1.3269  -0.7246   0.6890   0.9200   1.0109   1.1800
     1.2898   1.4707   1.5218   1.5757   1.6087   1.7997

          k = 0.1667-0.4811 0.0000 ( 59291 PWs)   bands (ev):

   -72.8927 -72.8841 -44.4437 -44.3600 -44.2916 -44.2834 -44.2699 -44.2616
   -21.1108 -20.9072 -20.7175 -20.1554 -19.7990 -19.4614 -19.3116 -19.1694
   -19.0092 -18.7738 -18.6349 -18.5396 -18.1429 -18.0852 -17.9170 -17.7187
   -12.3427 -12.1080 -12.0395 -11.9015 -11.6753 -11.6536 -11.5476 -10.9371
   -10.8848 -10.6185 -10.5183  -9.8550  -9.6881  -9.3311  -9.1058  -8.6629
    -8.6176  -8.5476  -8.3841  -8.3633  -8.1562  -8.1186  -8.0579  -8.0445
    -7.6827  -7.6181  -7.4888  -7.4689  -7.3519  -7.1658  -7.0627  -6.8559
    -6.6170  -6.3850  -6.1729  -6.1527  -5.9672  -5.9242  -5.7782  -5.7416
    -5.4462  -5.3936  -5.2048  -5.0374  -4.4395  -4.3436  -4.0843  -3.7622
    -2.8883  -2.0501  -2.0257  -1.8432  -1.6435  -1.6190  -1.5025  -1.4827
    -1.3843  -1.3659  -1.3280  -0.7284   0.5960   0.9176   1.0092   1.1087
     1.2332   1.2830   1.3859   1.8431   1.9187   2.1248

          k = 0.1667-0.0962 0.0000 ( 59226 PWs)   bands (ev):

   -72.8927 -72.8841 -44.4437 -44.3600 -44.2916 -44.2833 -44.2699 -44.2616
   -21.3079 -20.5300 -20.3410 -20.3332 -19.9832 -19.9750 -19.8009 -18.7241
   -18.7164 -18.3711 -18.3609 -18.3503 -18.2662 -18.2542 -18.0731 -18.0659
   -12.5033 -12.4960 -12.4031 -11.5762 -11.5707 -11.4234 -11.4133 -10.9211
   -10.9184  -9.9247  -9.9207  -9.6706  -9.3717  -9.3650  -9.2258  -9.2226
    -9.0373  -9.0349  -8.9189  -8.3192  -8.3158  -7.8965  -7.8936  -7.8760
    -7.8396  -7.7651  -7.6059  -7.5767  -7.1320  -7.0865  -6.9539  -6.8827
    -6.8802  -6.8473  -6.5261  -6.5227  -6.2522  -5.3455  -5.3122  -5.1380
    -5.0601  -4.8056  -4.7924  -4.7454  -4.6177  -4.5952  -4.3498  -4.3268
    -2.8946  -2.0506  -2.0261  -1.8498  -1.6463  -1.6195  -1.4990  -1.4801
    -1.3824  -1.3669  -1.3260  -0.7205   0.8171   0.9002   0.9545   1.1955
     1.2577   1.3431   1.5857   1.5956   1.7061   1.9507

          k =-0.5000-0.8660 0.0000 ( 59292 PWs)   bands (ev):

   -72.8927 -72.8841 -44.4437 -44.3600 -44.2916 -44.2834 -44.2699 -44.2616
   -21.0456 -21.0399 -20.4652 -20.4579 -19.4236 -19.4126 -19.4103 -19.4019
   -18.9879 -18.9829 -18.3198 -18.3184 -18.3138 -18.3030 -17.7894 -17.7825
   -12.0662 -12.0615 -12.0602 -12.0518 -11.8732 -11.8675 -11.3249 -11.3216
   -10.2307 -10.2259 -10.1300 -10.1273 -10.1257 -10.1202  -8.5852  -8.5454
    -8.5421  -8.5396  -8.5384  -8.5326  -7.8588  -7.8578  -7.8540  -7.8527
    -7.8210  -7.8138  -7.7772  -7.7479  -7.4866  -7.4793  -6.6064  -6.6015
    -6.3584  -6.3217  -6.3026  -6.2915  -6.1866  -6.1805  -5.7070  -5.6926
    -5.5412  -5.5357  -4.7203  -4.7082  -4.7060  -4.6826  -3.8829  -3.8634
    -2.8767  -2.0482  -2.0240  -1.8444  -1.6439  -1.6191  -1.5020  -1.4844
    -1.3912  -1.3704  -1.3303  -0.8487   0.7876   1.0489   1.0896   1.1767
     1.3443   1.5787   1.5874   1.6105   1.6807   1.7714

          k =-0.1667 0.2887 0.0000 ( 59267 PWs)   bands (ev):

   -72.8927 -72.8841 -44.4437 -44.3600 -44.2916 -44.2834 -44.2699 -44.2616
   -21.2414 -20.6559 -20.6498 -20.1011 -20.0892 -19.5830 -19.5770 -19.0942
   -18.6921 -18.6857 -18.4542 -18.4435 -18.1894 -18.0806 -18.0731 -17.8445
   -12.4787 -12.2025 -12.1953 -11.8165 -11.8121 -11.6532 -11.1870 -11.1834
   -10.3868 -10.3627 -10.1130 -10.1097  -9.5840  -9.5828  -8.8345  -8.8194
    -8.8161  -8.7621  -8.7559  -8.5912  -8.1920  -8.0475  -8.0110  -7.8243
    -7.8210  -7.4332  -7.4320  -7.2783  -7.2538  -7.2033  -7.2005  -6.9575
    -6.9482  -6.5617  -6.5337  -6.1488  -6.1472  -5.8673  -5.4135  -5.2920
    -5.2692  -5.1948  -4.9111  -4.8924  -4.5020  -4.3520  -4.3361  -3.9749
    -2.8913  -2.0504  -2.0259  -1.8465  -1.6443  -1.6192  -1.5006  -1.4815
    -1.3834  -1.3664  -1.3269  -0.7246   0.6890   0.9200   1.0109   1.1800
     1.2898   1.4707   1.5218   1.5757   1.6087   1.7997

          k = 0.3333 0.0000 0.0000 ( 59267 PWs)   bands (ev):

   -72.8927 -72.8841 -44.4437 -44.3600 -44.2916 -44.2833 -44.2699 -44.2616
   -21.2411 -20.6787 -20.6270 -20.0978 -20.0912 -19.6062 -19.5554 -19.0960
   -18.7070 -18.6665 -18.4529 -18.4465 -18.1851 -18.1014 -18.0582 -17.8437
   -12.4787 -12.1998 -12.1977 -11.8231 -11.8074 -11.6512 -11.2040 -11.1673
   -10.3855 -10.3629 -10.1240 -10.0987  -9.5901  -9.5757  -8.8417  -8.8178
    -8.8093  -8.7805  -8.7376  -8.5923  -8.1935  -8.0961  -7.9620  -7.8229
    -7.8208  -7.4391  -7.4256  -7.2833  -7.2432  -7.2121  -7.1918  -6.9555
    -6.9511  -6.6134  -6.4899  -6.1512  -6.1440  -5.8735  -5.4131  -5.2979
    -5.2521  -5.1953  -4.9167  -4.8904  -4.4919  -4.3764  -4.3246  -3.9736
    -2.8839  -2.0490  -2.0246  -1.8474  -1.6458  -1.6194  -1.4998  -1.4823
    -1.3877  -1.3694  -1.3284  -0.8082   0.8511   0.9780   1.1443   1.2526
     1.2710   1.4468   1.5366   1.5599   1.6051   1.7954

          k =-0.1667-0.4811 0.0000 ( 59291 PWs)   bands (ev):

   -72.8927 -72.8841 -44.4437 -44.3600 -44.2916 -44.2834 -44.2699 -44.2616
   -21.1108 -20.9072 -20.7175 -20.1554 -19.7990 -19.4614 -19.3116 -19.1694
   -19.0092 -18.7738 -18.6349 -18.5396 -18.1429 -18.0852 -17.9170 -17.7187
   -12.3427 -12.1079 -12.0395 -11.9014 -11.6752 -11.6536 -11.5476 -10.9371
   -10.8848 -10.6185 -10.5183  -9.8549  -9.6881  -9.3312  -9.1058  -8.6629
    -8.6175  -8.5477  -8.3840  -8.3633  -8.1561  -8.1186  -8.0579  -8.0446
    -7.6827  -7.6181  -7.4887  -7.4689  -7.3519  -7.1658  -7.0627  -6.8558
    -6.6170  -6.3851  -6.1729  -6.1528  -5.9672  -5.9241  -5.7781  -5.7415
    -5.4462  -5.3936  -5.2047  -5.0374  -4.4395  -4.3436  -4.0843  -3.7622
    -2.8883  -2.0501  -2.0257  -1.8432  -1.6435  -1.6190  -1.5025  -1.4827
    -1.3843  -1.3659  -1.3280  -0.7284   0.5960   0.9176   1.0092   1.1087
     1.2332   1.2830   1.3859   1.8431   1.9188   2.1248

          k = 0.5000-0.0962 0.0000 ( 59291 PWs)   bands (ev):

   -72.8927 -72.8841 -44.4436 -44.3600 -44.2916 -44.2834 -44.2699 -44.2616
   -21.1084 -20.9139 -20.7131 -20.1537 -19.7993 -19.4630 -19.3169 -19.1650
   -19.0100 -18.7744 -18.6260 -18.5452 -18.1317 -18.1003 -17.9143 -17.7184
   -12.3420 -12.1082 -12.0377 -11.9050 -11.6862 -11.6403 -11.5498 -10.9372
   -10.8830 -10.6170 -10.5204  -9.8527  -9.6888  -9.3321  -9.1052  -8.6530
    -8.6178  -8.5460  -8.3944  -8.3864  -8.1543  -8.0994  -8.0697  -8.0341
    -7.6794  -7.6187  -7.4879  -7.4701  -7.3452  -7.1670  -7.0631  -6.8559
    -6.6172  -6.3945  -6.1895  -6.1521  -5.9529  -5.9232  -5.7776  -5.7427
    -5.4474  -5.3931  -5.1820  -5.0524  -4.4153  -4.3729  -4.0814  -3.7620
    -2.8768  -2.0482  -2.0240  -1.8444  -1.6445  -1.6192  -1.5020  -1.4843
    -1.3912  -1.3704  -1.3303  -0.8484   0.7766   1.0251   1.0801   1.1883
     1.2862   1.3428   1.5072   1.7546   1.8415   1.9030

          k =-0.3333-0.3849 0.0000 ( 59291 PWs)   bands (ev):

   -72.8927 -72.8841 -44.4437 -44.3600 -44.2916 -44.2834 -44.2699 -44.2616
   -21.1092 -20.9116 -20.7148 -20.1536 -19.8009 -19.4614 -19.3125 -19.1679
   -19.0126 -18.7729 -18.6273 -18.5444 -18.1340 -18.0976 -17.9144 -17.7186
   -12.3423 -12.1068 -12.0396 -11.9042 -11.6760 -11.6515 -11.5489 -10.9371
   -10.8826 -10.6164 -10.5214  -9.8537  -9.6889  -9.3313  -9.1058  -8.6560
    -8.6169  -8.5481  -8.3852  -8.3822  -8.1559  -8.1066  -8.0579  -8.0465
    -7.6798  -7.6170  -7.4944  -7.4644  -7.3441  -7.1672  -7.0636  -6.8638
    -6.6154  -6.3855  -6.1740  -6.1540  -5.9655  -5.9224  -5.7779  -5.7522
    -5.4471  -5.3883  -5.1818  -5.0527  -4.4190  -4.3698  -4.0805  -3.7622
    -2.8806  -2.0490  -2.0247  -1.8440  -1.6437  -1.6191  -1.5024  -1.4837
    -1.3889  -1.3689  -1.3295  -0.8118   0.7101   1.0253   1.0891   1.1434
     1.2029   1.3795   1.4037   1.8054   1.9129   1.9250

          k = 0.5000 0.0962 0.0000 ( 59291 PWs)   bands (ev):

   -72.8927 -72.8841 -44.4436 -44.3600 -44.2916 -44.2834 -44.2699 -44.2616
   -21.1084 -20.9139 -20.7131 -20.1537 -19.7993 -19.4630 -19.3169 -19.1650
   -19.0100 -18.7743 -18.6260 -18.5452 -18.1317 -18.1003 -17.9143 -17.7184
   -12.3420 -12.1082 -12.0377 -11.9050 -11.6862 -11.6403 -11.5498 -10.9372
   -10.8829 -10.6170 -10.5205  -9.8528  -9.6888  -9.3321  -9.1052  -8.6530
    -8.6178  -8.5460  -8.3944  -8.3864  -8.1543  -8.0994  -8.0696  -8.0341
    -7.6795  -7.6186  -7.4879  -7.4701  -7.3452  -7.1671  -7.0631  -6.8559
    -6.6171  -6.3945  -6.1895  -6.1520  -5.9530  -5.9232  -5.7777  -5.7427
    -5.4474  -5.3931  -5.1820  -5.0524  -4.4153  -4.3729  -4.0815  -3.7620
    -2.8768  -2.0482  -2.0240  -1.8444  -1.6445  -1.6192  -1.5020  -1.4843
    -1.3912  -1.3704  -1.3303  -0.8484   0.7766   1.0251   1.0801   1.1884
     1.2861   1.3428   1.5072   1.7546   1.8416   1.9031

          k =-0.3333 0.3849 0.0000 ( 59291 PWs)   bands (ev):

   -72.8927 -72.8841 -44.4437 -44.3600 -44.2916 -44.2834 -44.2699 -44.2616
   -21.1092 -20.9116 -20.7148 -20.1536 -19.8009 -19.4614 -19.3125 -19.1679
   -19.0126 -18.7729 -18.6273 -18.5444 -18.1339 -18.0976 -17.9144 -17.7186
   -12.3423 -12.1068 -12.0397 -11.9042 -11.6760 -11.6515 -11.5489 -10.9372
   -10.8825 -10.6163 -10.5214  -9.8537  -9.6889  -9.3313  -9.1059  -8.6560
    -8.6170  -8.5480  -8.3852  -8.3822  -8.1560  -8.1066  -8.0579  -8.0465
    -7.6797  -7.6170  -7.4944  -7.4644  -7.3441  -7.1672  -7.0636  -6.8638
    -6.6154  -6.3855  -6.1740  -6.1540  -5.9655  -5.9225  -5.7779  -5.7523
    -5.4470  -5.3883  -5.1819  -5.0527  -4.4190  -4.3698  -4.0805  -3.7622
    -2.8806  -2.0490  -2.0247  -1.8440  -1.6437  -1.6191  -1.5024  -1.4837
    -1.3889  -1.3689  -1.3295  -0.8118   0.7101   1.0253   1.0891   1.1434
     1.2029   1.3796   1.4037   1.8054   1.9129   1.9249

          k =-0.1667-0.0962 0.0000 ( 59226 PWs)   bands (ev):

   -72.8927 -72.8841 -44.4437 -44.3600 -44.2916 -44.2833 -44.2699 -44.2616
   -21.3079 -20.5300 -20.3410 -20.3333 -19.9832 -19.9750 -19.8009 -18.7241
   -18.7164 -18.3711 -18.3609 -18.3503 -18.2662 -18.2542 -18.0731 -18.0659
   -12.5033 -12.4960 -12.4031 -11.5762 -11.5707 -11.4234 -11.4133 -10.9211
   -10.9184  -9.9247  -9.9208  -9.6705  -9.3717  -9.3649  -9.2258  -9.2226
    -9.0373  -9.0349  -8.9189  -8.3192  -8.3158  -7.8965  -7.8935  -7.8760
    -7.8396  -7.7651  -7.6059  -7.5767  -7.1320  -7.0866  -6.9539  -6.8827
    -6.8802  -6.8473  -6.5261  -6.5227  -6.2523  -5.3454  -5.3122  -5.1379
    -5.0602  -4.8056  -4.7923  -4.7454  -4.6176  -4.5952  -4.3498  -4.3268
    -2.8946  -2.0506  -2.0261  -1.8498  -1.6463  -1.6195  -1.4990  -1.4801
    -1.3824  -1.3669  -1.3260  -0.7205   0.8171   0.9002   0.9544   1.1954
     1.2577   1.3431   1.5858   1.5957   1.7061   1.9509

          k =-0.0000-0.1925 0.0000 ( 59226 PWs)   bands (ev):

   -72.8927 -72.8841 -44.4437 -44.3600 -44.2916 -44.2833 -44.2699 -44.2616
   -21.3080 -20.5255 -20.3496 -20.3326 -19.9829 -19.9686 -19.8042 -18.7262
   -18.7112 -18.3807 -18.3737 -18.3463 -18.2511 -18.2495 -18.0788 -18.0648
   -12.5005 -12.4991 -12.4028 -11.5801 -11.5685 -11.4184 -11.4152 -10.9228
   -10.9185  -9.9252  -9.9199  -9.6712  -9.3712  -9.3648  -9.2255  -9.2229
    -9.0366  -9.0362  -8.9194  -8.3192  -8.3146  -7.8952  -7.8939  -7.8590
    -7.8380  -7.7665  -7.6284  -7.5881  -7.1091  -7.0824  -6.9525  -6.8853
    -6.8790  -6.8590  -6.5277  -6.5206  -6.2527  -5.3393  -5.3099  -5.1383
    -5.0597  -4.8376  -4.7986  -4.7445  -4.5908  -4.5840  -4.3547  -4.3312
    -2.8982  -2.0514  -2.0267  -1.8493  -1.6455  -1.6194  -1.4994  -1.4799
    -1.3803  -1.3654  -1.3253  -0.6716   0.6941   0.8473   0.9574   1.1633
     1.2473   1.3752   1.5714   1.6008   1.7211   1.9690

          k = 0.5000-0.8660 0.0000 ( 59292 PWs)   bands (ev):

   -72.8927 -72.8841 -44.4437 -44.3600 -44.2916 -44.2834 -44.2699 -44.2616
   -21.0457 -21.0398 -20.4652 -20.4579 -19.4236 -19.4127 -19.4103 -19.4019
   -18.9880 -18.9828 -18.3198 -18.3183 -18.3139 -18.3030 -17.7894 -17.7825
   -12.0662 -12.0615 -12.0604 -12.0517 -11.8732 -11.8675 -11.3249 -11.3215
   -10.2307 -10.2259 -10.1300 -10.1274 -10.1257 -10.1202  -8.5852  -8.5454
    -8.5422  -8.5396  -8.5384  -8.5325  -7.8588  -7.8577  -7.8540  -7.8527
    -7.8210  -7.8139  -7.7772  -7.7479  -7.4866  -7.4793  -6.6063  -6.6015
    -6.3584  -6.3217  -6.3026  -6.2915  -6.1867  -6.1803  -5.7070  -5.6926
    -5.5413  -5.5358  -4.7204  -4.7082  -4.7060  -4.6826  -3.8829  -3.8634
    -2.8767  -2.0482  -2.0240  -1.8444  -1.6439  -1.6191  -1.5020  -1.4844
    -1.3912  -1.3704  -1.3303  -0.8487   0.7876   1.0489   1.0896   1.1768
     1.3443   1.5786   1.5873   1.6105   1.6806   1.7714

          k =-1.0000 0.0000 0.0000 ( 59292 PWs)   bands (ev):

   -72.8927 -72.8841 -44.4437 -44.3600 -44.2916 -44.2834 -44.2699 -44.2616
   -21.0675 -21.0155 -20.4719 -20.4555 -19.4208 -19.4156 -19.4116 -19.3950
   -19.0063 -18.9663 -18.3549 -18.3388 -18.2824 -18.2793 -17.7937 -17.7798
   -12.0898 -12.0807 -12.0358 -12.0296 -11.8779 -11.8636 -11.3443 -11.3043
   -10.2403 -10.2288 -10.1290 -10.1276 -10.1187 -10.1166  -8.6256  -8.5643
    -8.5566  -8.5176  -8.5173  -8.4878  -7.8683  -7.8669  -7.8535  -7.8503
    -7.8130  -7.8101  -7.7855  -7.7539  -7.5062  -7.4614  -6.6078  -6.5986
    -6.3464  -6.3201  -6.3098  -6.2780  -6.2018  -6.1680  -5.7266  -5.6803
    -5.5591  -5.5178  -4.7975  -4.7358  -4.6502  -4.6373  -3.8856  -3.8619
    -2.8921  -2.0506  -2.0260  -1.8428  -1.6434  -1.6190  -1.5023  -1.4822
    -1.3820  -1.3645  -1.3272  -0.6803   0.5521   0.8064   1.0023   1.1044
     1.2426   1.4655   1.5941   1.6216   1.6442   1.9441

 ------ SPIN DOWN ----------


          k = 0.1667 0.2887 0.0000 ( 59267 PWs)   bands (ev):

   -68.6962 -68.6864 -40.3751 -40.2763 -40.1135 -40.1036 -40.0727 -40.0627
   -21.2374 -20.6529 -20.6448 -20.0967 -20.0854 -19.5803 -19.5717 -19.0901
   -18.6884 -18.6802 -18.4498 -18.4395 -18.1843 -18.0771 -18.0689 -17.8401
   -12.4761 -12.1995 -12.1927 -11.8139 -11.8097 -11.6509 -11.1849 -11.1800
   -10.3837 -10.3598 -10.1103 -10.1062  -9.5815  -9.5797  -8.8206  -8.8133
    -8.8094  -8.7603  -8.7524  -8.5887  -8.1895  -8.0217  -8.0017  -7.8217
    -7.8186  -7.4296  -7.4287  -7.2583  -7.2395  -7.2013  -7.1975  -6.9547
    -6.9457  -6.5388  -6.5257  -6.1460  -6.1445  -5.8504  -5.4102  -5.2680
    -5.2565  -5.1921  -4.8957  -4.8793  -4.4840  -4.3370  -4.3258  -3.9605
    -1.4518   0.3838   0.9120   1.0247   1.0982   1.1325   1.2449   1.3475
     1.3900   1.4936   1.5340   1.5987   1.6369   1.7126   1.8989   1.9368
     2.0365   2.0906   2.1606   2.1893   2.2810   2.3076

          k = 0.1667-0.4811 0.0000 ( 59291 PWs)   bands (ev):

   -68.6962 -68.6864 -40.3751 -40.2763 -40.1135 -40.1036 -40.0727 -40.0627
   -21.1064 -20.9038 -20.7133 -20.1512 -19.7950 -19.4573 -19.3076 -19.1650
   -19.0051 -18.7698 -18.6292 -18.5362 -18.1368 -18.0829 -17.9124 -17.7142
   -12.3400 -12.1052 -12.0370 -11.8990 -11.6733 -11.6504 -11.5450 -10.9341
   -10.8817 -10.6152 -10.5157  -9.8517  -9.6854  -9.3280  -9.1030  -8.6387
    -8.6149  -8.5445  -8.3816  -8.3508  -8.1535  -8.1007  -8.0557  -8.0418
    -7.6798  -7.6154  -7.4862  -7.4665  -7.3334  -7.1626  -7.0601  -6.8394
    -6.6135  -6.3688  -6.1560  -6.1500  -5.9517  -5.9207  -5.7754  -5.7253
    -5.4435  -5.3781  -5.1811  -5.0278  -4.4177  -4.3371  -4.0700  -3.7483
    -1.4424   0.3719   0.9196   0.9827   1.0362   1.0876   1.2012   1.2218
     1.3487   1.4160   1.5449   1.7391   1.7913   1.8315   1.8713   2.0816
     2.1163   2.1349   2.1580   2.2139   2.2880   2.3071

          k = 0.1667-0.0962 0.0000 ( 59226 PWs)   bands (ev):

   -68.6962 -68.6864 -40.3751 -40.2763 -40.1135 -40.1036 -40.0727 -40.0627
   -21.3039 -20.5254 -20.3369 -20.3300 -19.9782 -19.9714 -19.7973 -18.7188
   -18.7125 -18.3662 -18.3571 -18.3462 -18.2614 -18.2497 -18.0687 -18.0625
   -12.5003 -12.4935 -12.4004 -11.5734 -11.5686 -11.4204 -11.4107 -10.9180
   -10.9159  -9.9217  -9.9181  -9.6674  -9.3688  -9.3623  -9.2222  -9.2197
    -9.0345  -9.0323  -8.8997  -8.3156  -8.3127  -7.8938  -7.8906  -7.8536
    -7.8354  -7.7627  -7.5883  -7.5664  -7.1051  -7.0758  -6.9512  -6.8800
    -6.8779  -6.8363  -6.5233  -6.5203  -6.2496  -5.3210  -5.2998  -5.1350
    -5.0572  -4.7879  -4.7742  -4.7329  -4.6013  -4.5830  -4.3328  -4.3171
    -1.4613   0.3979   0.9159   1.0298   1.0686   1.1170   1.1461   1.2999
     1.4806   1.5410   1.5973   1.6404   1.7659   1.8745   1.8851   1.9214
     1.9625   2.0284   2.1155   2.1713   2.2420   2.3029

          k =-0.5000-0.8660 0.0000 ( 59292 PWs)   bands (ev):

   -68.6962 -68.6864 -40.3751 -40.2763 -40.1135 -40.1036 -40.0727 -40.0627
   -21.0429 -21.0344 -20.4610 -20.4545 -19.4177 -19.4093 -19.4061 -19.3981
   -18.9852 -18.9775 -18.3152 -18.3138 -18.3127 -18.2959 -17.7846 -17.7787
   -12.0626 -12.0593 -12.0590 -12.0478 -11.8705 -11.8656 -11.3227 -11.3181
   -10.2275 -10.2235 -10.1265 -10.1240 -10.1227 -10.1178  -8.5549  -8.5411
    -8.5402  -8.5364  -8.5316  -8.5285  -7.8559  -7.8549  -7.8514  -7.8506
    -7.8161  -7.8104  -7.7592  -7.7372  -7.4850  -7.4760  -6.6033  -6.5991
    -6.3266  -6.3014  -6.2925  -6.2812  -6.1842  -6.1769  -5.6886  -5.6822
    -5.5395  -5.5318  -4.7007  -4.6931  -4.6826  -4.6797  -3.8660  -3.8524
    -1.4192   0.1348   0.9385   0.9970   1.0922   1.1310   1.2068   1.3682
     1.5150   1.5478   1.5790   1.6986   1.7373   1.8654   1.9094   1.9503
     1.9875   2.0366   2.1765   2.2202   2.3055   2.3185

          k =-0.1667 0.2887 0.0000 ( 59267 PWs)   bands (ev):

   -68.6962 -68.6864 -40.3751 -40.2763 -40.1135 -40.1036 -40.0727 -40.0627
   -21.2374 -20.6530 -20.6448 -20.0967 -20.0854 -19.5803 -19.5716 -19.0901
   -18.6884 -18.6801 -18.4498 -18.4395 -18.1843 -18.0771 -18.0688 -17.8401
   -12.4761 -12.1995 -12.1927 -11.8139 -11.8097 -11.6509 -11.1849 -11.1799
   -10.3837 -10.3598 -10.1103 -10.1062  -9.5815  -9.5797  -8.8205  -8.8133
    -8.8094  -8.7604  -8.7524  -8.5886  -8.1895  -8.0217  -8.0017  -7.8217
    -7.8186  -7.4296  -7.4287  -7.2583  -7.2395  -7.2013  -7.1975  -6.9548
    -6.9458  -6.5388  -6.5257  -6.1461  -6.1445  -5.8504  -5.4103  -5.2680
    -5.2565  -5.1920  -4.8957  -4.8793  -4.4841  -4.3370  -4.3258  -3.9605
    -1.4518   0.3838   0.9120   1.0247   1.0982   1.1325   1.2449   1.3475
     1.3899   1.4936   1.5340   1.5987   1.6369   1.7126   1.8989   1.9368
     2.0365   2.0905   2.1607   2.1891   2.2808   2.3076

          k = 0.3333 0.0000 0.0000 ( 59267 PWs)   bands (ev):

   -68.6962 -68.6864 -40.3751 -40.2763 -40.1135 -40.1036 -40.0727 -40.0627
   -21.2370 -20.6726 -20.6251 -20.0939 -20.0872 -19.5999 -19.5535 -19.0915
   -18.7006 -18.6646 -18.4483 -18.4424 -18.1810 -18.0943 -18.0563 -17.8396
   -12.4760 -12.1972 -12.1947 -11.8204 -11.8049 -11.6492 -11.2000 -11.1655
   -10.3826 -10.3600 -10.1199 -10.0968  -9.5868  -9.5736  -8.8262  -8.8145
    -8.8016  -8.7767  -8.7363  -8.5895  -8.1907  -8.0653  -7.9580  -7.8205
    -7.8184  -7.4348  -7.4233  -7.2611  -7.2329  -7.2087  -7.1901  -6.9527
    -6.9485  -6.5840  -6.4856  -6.1483  -6.1417  -5.8546  -5.4099  -5.2789
    -5.2383  -5.1925  -4.8980  -4.8793  -4.4775  -4.3579  -4.3131  -3.9598
    -1.4371   0.2151   0.9691   1.0277   1.1005   1.1395   1.1676   1.4043
     1.4729   1.5136   1.5442   1.6709   1.7769   1.8431   1.9002   1.9199
     2.0031   2.0631   2.1237   2.1735   2.2905   2.3634

          k =-0.1667-0.4811 0.0000 ( 59291 PWs)   bands (ev):

   -68.6962 -68.6864 -40.3751 -40.2763 -40.1135 -40.1036 -40.0727 -40.0627
   -21.1064 -20.9038 -20.7133 -20.1512 -19.7950 -19.4573 -19.3076 -19.1650
   -19.0051 -18.7698 -18.6292 -18.5362 -18.1368 -18.0829 -17.9124 -17.7142
   -12.3401 -12.1052 -12.0370 -11.8990 -11.6733 -11.6504 -11.5450 -10.9341
   -10.8817 -10.6152 -10.5156  -9.8516  -9.6854  -9.3280  -9.1031  -8.6387
    -8.6148  -8.5445  -8.3816  -8.3508  -8.1535  -8.1007  -8.0557  -8.0419
    -7.6798  -7.6155  -7.4861  -7.4665  -7.3334  -7.1626  -7.0601  -6.8394
    -6.6136  -6.3688  -6.1561  -6.1500  -5.9517  -5.9207  -5.7753  -5.7253
    -5.4435  -5.3781  -5.1810  -5.0278  -4.4176  -4.3371  -4.0700  -3.7483
    -1.4424   0.3719   0.9196   0.9827   1.0362   1.0876   1.2011   1.2218
     1.3487   1.4160   1.5449   1.7391   1.7913   1.8316   1.8713   2.0815
     2.1163   2.1349   2.1580   2.2139   2.2880   2.3071

          k = 0.5000-0.0962 0.0000 ( 59291 PWs)   bands (ev):

   -68.6962 -68.6864 -40.3751 -40.2763 -40.1135 -40.1036 -40.0727 -40.0627
   -21.1044 -20.9094 -20.7097 -20.1498 -19.7953 -19.4585 -19.3120 -19.1614
   -19.0058 -18.7701 -18.6222 -18.5408 -18.1278 -18.0949 -17.9104 -17.7140
   -12.3394 -12.1055 -12.0353 -11.9021 -11.6831 -11.6386 -11.5469 -10.9343
   -10.8800 -10.6140 -10.5175  -9.8498  -9.6860  -9.3288  -9.1026  -8.6319
    -8.6151  -8.5431  -8.3846  -8.3714  -8.1519  -8.0876  -8.0660  -8.0327
    -7.6770  -7.6160  -7.4854  -7.4675  -7.3288  -7.1637  -7.0605  -6.8396
    -6.6137  -6.3741  -6.1680  -6.1495  -5.9420  -5.9200  -5.7749  -5.7262
    -5.4446  -5.3779  -5.1656  -5.0381  -4.4001  -4.3581  -4.0678  -3.7482
    -1.4193   0.1366   0.9354   1.0045   1.0645   1.1052   1.1775   1.2411
     1.3772   1.5987   1.6900   1.7635   1.8453   1.9020   1.9538   1.9912
     2.0306   2.1090   2.1916   2.2574   2.2896   2.3514

          k =-0.3333-0.3849 0.0000 ( 59291 PWs)   bands (ev):

   -68.6962 -68.6864 -40.3751 -40.2763 -40.1135 -40.1036 -40.0727 -40.0627
   -21.1051 -20.9074 -20.7110 -20.1497 -19.7966 -19.4573 -19.3084 -19.1638
   -19.0079 -18.7689 -18.6232 -18.5401 -18.1295 -18.0929 -17.9104 -17.7142
   -12.3397 -12.1041 -12.0371 -11.9014 -11.6740 -11.6486 -11.5460 -10.9342
   -10.8798 -10.6134 -10.5183  -9.8505  -9.6861  -9.3282  -9.1031  -8.6339
    -8.6143  -8.5447  -8.3825  -8.3639  -8.1533  -8.0926  -8.0557  -8.0434
    -7.6774  -7.6145  -7.4910  -7.4627  -7.3282  -7.1639  -7.0609  -6.8446
    -6.6122  -6.3690  -6.1572  -6.1509  -5.9498  -5.9193  -5.7752  -5.7328
    -5.4443  -5.3747  -5.1659  -5.0380  -4.4025  -4.3559  -4.0674  -3.7484
    -1.4271   0.2026   0.9272   0.9823   1.0608   1.1016   1.2159   1.2661
     1.3350   1.5117   1.6756   1.7624   1.8469   1.9013   1.9300   2.0008
     2.0571   2.0740   2.1417   2.2268   2.3042   2.3267

          k = 0.5000 0.0962 0.0000 ( 59291 PWs)   bands (ev):

   -68.6962 -68.6864 -40.3751 -40.2763 -40.1135 -40.1036 -40.0727 -40.0627
   -21.1044 -20.9094 -20.7097 -20.1498 -19.7953 -19.4585 -19.3120 -19.1614
   -19.0057 -18.7701 -18.6222 -18.5408 -18.1278 -18.0949 -17.9104 -17.7140
   -12.3394 -12.1055 -12.0353 -11.9021 -11.6831 -11.6386 -11.5469 -10.9343
   -10.8800 -10.6140 -10.5176  -9.8498  -9.6861  -9.3288  -9.1025  -8.6319
    -8.6151  -8.5431  -8.3846  -8.3714  -8.1519  -8.0876  -8.0659  -8.0326
    -7.6771  -7.6160  -7.4854  -7.4676  -7.3288  -7.1638  -7.0604  -6.8396
    -6.6136  -6.3741  -6.1680  -6.1494  -5.9420  -5.9199  -5.7749  -5.7262
    -5.4446  -5.3779  -5.1656  -5.0380  -4.4001  -4.3580  -4.0678  -3.7483
    -1.4193   0.1366   0.9354   1.0045   1.0645   1.1052   1.1775   1.2411
     1.3772   1.5987   1.6900   1.7635   1.8453   1.9019   1.9537   1.9913
     2.0306   2.1089   2.1917   2.2575   2.2896   2.3514

          k =-0.3333 0.3849 0.0000 ( 59291 PWs)   bands (ev):

   -68.6962 -68.6864 -40.3751 -40.2763 -40.1135 -40.1036 -40.0727 -40.0627
   -21.1051 -20.9075 -20.7110 -20.1497 -19.7966 -19.4573 -19.3084 -19.1638
   -19.0079 -18.7689 -18.6232 -18.5401 -18.1294 -18.0929 -17.9104 -17.7142
   -12.3397 -12.1041 -12.0371 -11.9014 -11.6740 -11.6486 -11.5460 -10.9342
   -10.8797 -10.6134 -10.5183  -9.8505  -9.6861  -9.3282  -9.1031  -8.6339
    -8.6143  -8.5446  -8.3826  -8.3639  -8.1534  -8.0926  -8.0557  -8.0434
    -7.6773  -7.6145  -7.4910  -7.4626  -7.3282  -7.1638  -7.0609  -6.8446
    -6.6122  -6.3690  -6.1572  -6.1510  -5.9498  -5.9194  -5.7751  -5.7328
    -5.4442  -5.3747  -5.1659  -5.0380  -4.4025  -4.3559  -4.0674  -3.7483
    -1.4271   0.2026   0.9272   0.9822   1.0608   1.1016   1.2159   1.2661
     1.3350   1.5117   1.6756   1.7624   1.8469   1.9013   1.9301   2.0008
     2.0571   2.0740   2.1418   2.2267   2.3041   2.3268

          k =-0.1667-0.0962 0.0000 ( 59226 PWs)   bands (ev):

   -68.6962 -68.6864 -40.3751 -40.2763 -40.1135 -40.1036 -40.0727 -40.0627
   -21.3039 -20.5254 -20.3369 -20.3300 -19.9782 -19.9714 -19.7973 -18.7188
   -18.7125 -18.3662 -18.3571 -18.3462 -18.2614 -18.2497 -18.0687 -18.0625
   -12.5004 -12.4935 -12.4004 -11.5734 -11.5686 -11.4204 -11.4108 -10.9180
   -10.9159  -9.9217  -9.9182  -9.6674  -9.3688  -9.3622  -9.2222  -9.2198
    -9.0345  -9.0323  -8.8997  -8.3156  -8.3128  -7.8937  -7.8906  -7.8536
    -7.8353  -7.7627  -7.5883  -7.5664  -7.1050  -7.0758  -6.9512  -6.8799
    -6.8778  -6.8363  -6.5232  -6.5202  -6.2497  -5.3210  -5.2999  -5.1349
    -5.0573  -4.7879  -4.7742  -4.7329  -4.6012  -4.5830  -4.3328  -4.3171
    -1.4613   0.3979   0.9159   1.0298   1.0686   1.1170   1.1461   1.2999
     1.4806   1.5410   1.5973   1.6404   1.7659   1.8745   1.8852   1.9215
     1.9625   2.0285   2.1156   2.1712   2.2419   2.3029

          k =-0.0000-0.1925 0.0000 ( 59226 PWs)   bands (ev):

   -68.6962 -68.6864 -40.3751 -40.2762 -40.1135 -40.1036 -40.0727 -40.0627
   -21.3040 -20.5217 -20.3448 -20.3286 -19.9788 -19.9653 -19.8000 -18.7214
   -18.7074 -18.3739 -18.3679 -18.3424 -18.2486 -18.2467 -18.0743 -18.0606
   -12.4980 -12.4961 -12.4001 -11.5773 -11.5662 -11.4160 -11.4125 -10.9197
   -10.9157  -9.9223  -9.9173  -9.6679  -9.3681  -9.3623  -9.2222  -9.2198
    -9.0339  -9.0333  -8.9001  -8.3160  -8.3114  -7.8927  -7.8914  -7.8442
    -7.8315  -7.7638  -7.6042  -7.5735  -7.0929  -7.0694  -6.9499  -6.8825
    -6.8766  -6.8446  -6.5249  -6.5182  -6.2500  -5.3196  -5.2954  -5.1353
    -5.0568  -4.8080  -4.7816  -4.7308  -4.5825  -4.5763  -4.3386  -4.3172
    -1.4682   0.5277   0.8789   0.9938   1.0792   1.1090   1.1938   1.2403
     1.4344   1.5208   1.5268   1.5870   1.7308   1.8546   1.8661   1.9126
     2.0571   2.0583   2.1341   2.1509   2.2074   2.2985

          k = 0.5000-0.8660 0.0000 ( 59292 PWs)   bands (ev):

   -68.6962 -68.6864 -40.3751 -40.2763 -40.1135 -40.1036 -40.0727 -40.0627
   -21.0429 -21.0343 -20.4609 -20.4546 -19.4177 -19.4093 -19.4061 -19.3981
   -18.9853 -18.9774 -18.3152 -18.3138 -18.3128 -18.2958 -17.7846 -17.7787
   -12.0626 -12.0593 -12.0590 -12.0477 -11.8705 -11.8656 -11.3228 -11.3180
   -10.2275 -10.2235 -10.1265 -10.1240 -10.1227 -10.1178  -8.5549  -8.5411
    -8.5403  -8.5363  -8.5316  -8.5284  -7.8558  -7.8549  -7.8514  -7.8506
    -7.8161  -7.8104  -7.7592  -7.7372  -7.4851  -7.4760  -6.6032  -6.5990
    -6.3266  -6.3014  -6.2925  -6.2812  -6.1842  -6.1767  -5.6887  -5.6822
    -5.5396  -5.5319  -4.7007  -4.6930  -4.6825  -4.6797  -3.8660  -3.8524
    -1.4192   0.1348   0.9385   0.9970   1.0923   1.1310   1.2068   1.3682
     1.5149   1.5478   1.5789   1.6986   1.7374   1.8653   1.9094   1.9503
     1.9875   2.0367   2.1764   2.2204   2.3056   2.3189

          k =-1.0000 0.0000 0.0000 ( 59292 PWs)   bands (ev):

   -68.6962 -68.6864 -40.3752 -40.2763 -40.1135 -40.1036 -40.0727 -40.0627
   -21.0616 -21.0136 -20.4673 -20.4517 -19.4164 -19.4111 -19.4075 -19.3918
   -18.9999 -18.9643 -18.3465 -18.3316 -18.2814 -18.2784 -17.7889 -17.7756
   -12.0861 -12.0760 -12.0348 -12.0285 -11.8753 -11.8615 -11.3400 -11.3026
   -10.2364 -10.2256 -10.1258 -10.1246 -10.1161 -10.1145  -8.5935  -8.5602
    -8.5527  -8.5167  -8.5158  -8.4839  -7.8649  -7.8633  -7.8508  -7.8477
    -7.8075  -7.8063  -7.7674  -7.7401  -7.5022  -7.4603  -6.6049  -6.5962
    -6.3215  -6.3008  -6.2972  -6.2689  -6.1975  -6.1658  -5.7082  -5.6673
    -5.5546  -5.5167  -4.7613  -4.7149  -4.6470  -4.6355  -3.8702  -3.8492
    -1.4497   0.4909   0.9201   1.0144   1.0440   1.0603   1.2223   1.2513
     1.3414   1.3470   1.6254   1.6409   1.6764   1.8119   1.8158   1.8382
     2.1312   2.1480   2.1565   2.1921   2.2882   2.3056

     the Fermi energy is    -1.1642 ev

!    total energy              =   -1133.82778971 Ry

     total all-electron energy =     -6753.503493 Ry
     estimated scf accuracy    <       0.00000006 Ry
     smearing contrib. (-TS)   =      -0.00000000 Ry
     internal energy E=F+TS    =   -1133.82778971 Ry

     The total energy is F=E-TS. E is the sum of the following terms:
     one-electron contribution =   -3953.47363184 Ry
     hartree contribution      =    2004.94181359 Ry
     xc contribution           =    -186.02242095 Ry
     ewald contribution        =    1360.10288948 Ry
     DFT-D3 Dispersion         =      -0.13341748 Ry
     one-center paw contrib.   =    -359.24302251 Ry

     total magnetization       =    10.00 Bohr mag/cell
     absolute magnetization    =    10.01 Bohr mag/cell

     convergence has been achieved in  14 iterations

     Writing output data file ./mytmp/Crdimer0.141-0.2.save/
 
     init_run     :     18.62s CPU     19.95s WALL (       1 calls)
     electrons    :    481.47s CPU    513.88s WALL (       1 calls)

     Called by init_run:
     wfcinit      :     13.88s CPU     14.71s WALL (       1 calls)
     potinit      :      1.54s CPU      1.63s WALL (       1 calls)
     hinit0       :      1.54s CPU      1.64s WALL (       1 calls)

     Called by electrons:
     c_bands      :    384.13s CPU    408.00s WALL (      14 calls)
     sum_band     :     75.24s CPU     80.51s WALL (      14 calls)
     v_of_rho     :      4.60s CPU      4.92s WALL (      15 calls)
     newd         :      9.41s CPU     12.45s WALL (      15 calls)
     PAW_pot      :      7.34s CPU      7.44s WALL (      15 calls)
     mix_rho      :      0.98s CPU      1.01s WALL (      14 calls)

     Called by c_bands:
     init_us_2    :      5.03s CPU      5.06s WALL (     870 calls)
     cegterg      :    371.80s CPU    395.58s WALL (     420 calls)

     Called by *egterg:
     cdiaghg      :     23.59s CPU     38.08s WALL (    2690 calls)
     h_psi        :    240.95s CPU    249.78s WALL (    2720 calls)
     s_psi        :     26.76s CPU     26.84s WALL (    2720 calls)
     g_psi        :      0.70s CPU      0.72s WALL (    2270 calls)

     Called by h_psi:
     h_psi:calbec :     27.70s CPU     28.27s WALL (    2720 calls)
     vloc_psi     :    184.19s CPU    192.31s WALL (    2720 calls)
     add_vuspsi   :     26.96s CPU     27.09s WALL (    2720 calls)

     General routines
     calbec       :     37.11s CPU     37.85s WALL (    3140 calls)
     fft          :      4.16s CPU      4.94s WALL (     369 calls)
     ffts         :      0.12s CPU      0.12s WALL (      58 calls)
     fftw         :    190.27s CPU    198.62s WALL (  248438 calls)
     interpolate  :      0.42s CPU      0.44s WALL (      30 calls)
 
     Parallel routines
     fft_scatt_xy :     30.41s CPU     31.53s WALL (  248865 calls)
     fft_scatt_yz :     75.38s CPU     79.98s WALL (  248865 calls)
 
     PWSCF        :   8m22.09s CPU   8m57.87s WALL

 
   This run was terminated on:  12:18:23   2Apr2021            

=------------------------------------------------------------------------------=
   JOB DONE.
=------------------------------------------------------------------------------=
