
     Program PWSCF v.6.7MaX starts on  2Apr2021 at 15:11:23 

     This program is part of the open-source Quantum ESPRESSO suite
     for quantum simulation of materials; please cite
         "P. Giannozzi et al., J. Phys.:Condens. Matter 21 395502 (2009);
         "P. Giannozzi et al., J. Phys.:Condens. Matter 29 465901 (2017);
          URL http://www.quantum-espresso.org", 
     in publications or presentations arising from this work. More details at
     http://www.quantum-espresso.org/quote

     Parallel version (MPI), running on    48 processors

     MPI processes distributed on     1 nodes
     R & G space division:  proc/nbgrp/npool/nimage =      48
     Reading input from Crdimer0.143-0.3.scf.in

     Current dimensions of program PWSCF are:
     Max number of different atomic species (ntypx) = 10
     Max number of k-points (npk) =  40000
     Max angular momentum in pseudopotentials (lmaxx) =  3
     file N.pbe-n-kjpaw_psl.1.0.0.UPF: wavefunction(s)  2S renormalized
     file Cr.pbe-spn-kjpaw_psl.1.0.0.UPF: wavefunction(s)  3S 3P 3D renormalized
     file Cr.pbe-spn-kjpaw_psl.1.0.0.UPF: wavefunction(s)  3S 3P 3D renormalized

     --------------------------------------------
     Parameters for DFT-D3 Dispersion Correction:
     --------------------------------------------
       Reference C6 values for interpolation: 

         atom   Coordination number   C6
         B          0.000           214.36
         B          0.971           150.74
         B          1.944           106.23
         B          2.913            62.89
         B          4.586            56.06
         N          0.000            50.54
         N          0.994            44.25
         N          2.014            39.35
         N          2.990            31.16
         Cr1        0.000          1381.48
         Cr1        1.827           571.38
         Cr1       10.619           306.69
         Cr2        0.000          1381.48
         Cr2        1.827           571.38
         Cr2       10.619           306.69

       Values used:

         atom   Coordination number  R0_AB[au]  C6      C8
         B          3.338            3.039     62.89   2505.93
         B          3.335            3.039     62.89   2506.00
         B          3.337            3.039     62.89   2505.95
         B          3.335            3.039     62.89   2506.01
         B          3.379            3.039     62.86   2504.76
         B          3.335            3.039     62.89   2506.01
         N          3.135            2.478     31.22    688.69
         N          3.136            2.478     31.22    688.68
         N          3.140            2.478     31.22    688.65
         N          3.135            2.478     31.22    688.69
         N          3.153            2.478     31.21    688.53
         N          3.134            2.478     31.22    688.69
         N          3.150            2.478     31.21    688.56
         N          3.134            2.478     31.22    688.70
         N          3.134            2.478     31.22    688.70
         B          3.341            3.039     62.89   2505.87
         B          3.335            3.039     62.89   2506.00
         B          3.335            3.039     62.89   2506.01
         B          3.379            3.039     62.86   2504.76
         B          3.338            3.039     62.89   2505.93
         B          3.341            3.039     62.89   2505.87
         N          3.150            2.478     31.21    688.56
         B          3.336            3.039     62.89   2506.00
         B          3.343            3.039     62.89   2505.81
         B          3.337            3.039     62.89   2505.97
         N          3.134            2.478     31.22    688.69
         N          3.136            2.478     31.22    688.68
         N          3.134            2.478     31.22    688.70
         N          3.134            2.478     31.22    688.70
         N          3.140            2.478     31.22    688.65
         N          3.135            2.478     31.22    688.69
         B          3.337            3.039     62.89   2505.97
         Cr1        0.696            3.252   1339.91 123658.26
         Cr2        0.696            3.252   1339.91 123658.26

         Molecular C6 ( Ry / a.u.^6 ) =     78687.63


     Subspace diagonalization in iterative solution of the eigenvalue problem:
     one sub-group per band group will be used
     scalapack distributed-memory algorithm (size of sub-group:  6*  6 procs)

 
     Parallelization info
     --------------------
     sticks:   dense  smooth     PW     G-vecs:    dense   smooth      PW
     Min         235      98     26                36277     9874    1408
     Max         236      99     27                36282     9883    1425
     Sum       11311    4741   1285              1741401   474235   68095
 


     bravais-lattice index     =            4
     lattice parameter (alat)  =      18.9275  a.u.
     unit-cell volume          =   10553.3021 (a.u.)^3
     number of atoms/cell      =           34
     number of atomic types    =            4
     number of electrons       =       156.00
     number of Kohn-Sham states=           94
     kinetic-energy cutoff     =      48.0000  Ry
     charge density cutoff     =     457.0000  Ry
     scf convergence threshold =      1.0E-07
     mixing beta               =       0.5000
     number of iterations used =            8  plain     mixing
     Exchange-correlation= SLA  PW   PBX  PBC
                           (   1   4   3   4   0   0   0)

     celldm(1)=  18.927497  celldm(2)=   0.000000  celldm(3)=   1.797125
     celldm(4)=   0.000000  celldm(5)=   0.000000  celldm(6)=   0.000000

     crystal axes: (cart. coord. in units of alat)
               a(1) = (   1.000000   0.000000   0.000000 )  
               a(2) = (  -0.500000   0.866025   0.000000 )  
               a(3) = (   0.000000   0.000000   1.797125 )  

     reciprocal axes: (cart. coord. in units 2 pi/alat)
               b(1) = (  1.000000  0.577350  0.000000 )  
               b(2) = (  0.000000  1.154701  0.000000 )  
               b(3) = (  0.000000  0.000000  0.556444 )  


     PseudoPot. # 1 for B  read from file:
     /home/sf05/q-e-qe-6.7MaX-Release/pseudo/B.pbe-n-kjpaw_psl.1.0.0.UPF
     MD5 check sum: d9c678ba5d3b2fd7b74e61139c9288d8
     Pseudo is Projector augmented-wave + core cor, Zval =  3.0
     Generated using "atomic" code by A. Dal Corso  v.5.1.2
     Shape of augmentation charge: PSQ
     Using radial grid of 1059 points,  4 beta functions with: 
                l(1) =   0
                l(2) =   0
                l(3) =   1
                l(4) =   1
     Q(r) pseudized with 0 coefficients 


     PseudoPot. # 2 for N  read from file:
     /home/sf05/q-e-qe-6.7MaX-Release/pseudo/N.pbe-n-kjpaw_psl.1.0.0.UPF
     MD5 check sum: e0e4e94a9c4025c5b51bd7d8793849bd
     Pseudo is Projector augmented-wave + core cor, Zval =  5.0
     Generated using "atomic" code by A. Dal Corso  v.5.1.2
     Shape of augmentation charge: PSQ
     Using radial grid of 1085 points,  4 beta functions with: 
                l(1) =   0
                l(2) =   0
                l(3) =   1
                l(4) =   1
     Q(r) pseudized with 0 coefficients 


     PseudoPot. # 3 for Cr read from file:
     /home/sf05/q-e-qe-6.7MaX-Release/pseudo/Cr.pbe-spn-kjpaw_psl.1.0.0.UPF
     MD5 check sum: 198f1a2427a48552563eee314eba32ba
     Pseudo is Projector augmented-wave + core cor, Zval = 14.0
     Generated using &quot;atomic&quot; code by A. Dal Corso  v.6.3
     Shape of augmentation charge: PSQ
     Using radial grid of 1183 points,  6 beta functions with: 
                l(1) =   0
                l(2) =   0
                l(3) =   1
                l(4) =   1
                l(5) =   2
                l(6) =   2
     Q(r) pseudized with 0 coefficients 


     PseudoPot. # 4 for Cr read from file:
     /home/sf05/q-e-qe-6.7MaX-Release/pseudo/Cr.pbe-spn-kjpaw_psl.1.0.0.UPF
     MD5 check sum: 198f1a2427a48552563eee314eba32ba
     Pseudo is Projector augmented-wave + core cor, Zval = 14.0
     Generated using &quot;atomic&quot; code by A. Dal Corso  v.6.3
     Shape of augmentation charge: PSQ
     Using radial grid of 1183 points,  6 beta functions with: 
                l(1) =   0
                l(2) =   0
                l(3) =   1
                l(4) =   1
                l(5) =   2
                l(6) =   2
     Q(r) pseudized with 0 coefficients 


     atomic species   valence    mass     pseudopotential
        B              3.00    10.81100     B ( 1.00)
        N              5.00    14.00674     N ( 1.00)
        Cr1           14.00    51.99610     Cr( 1.00)
        Cr2           14.00    51.99610     Cr( 1.00)

     Starting magnetic structure 
     atomic species   magnetization
        B            0.000
        N            0.000
        Cr1          1.000
        Cr2          1.000

     No symmetry found



   Cartesian axes

     site n.     atom                  positions (alat units)
         1           B   tau(   1) = (  -0.1250000   0.2165064   0.8985623  )
         2           B   tau(   2) = (   0.3750000   0.6495191   0.8985623  )
         3           B   tau(   3) = (   0.2500000   0.0000000   0.8985623  )
         4           B   tau(   4) = (   0.7500000   0.0000000   0.8985623  )
         5           B   tau(   5) = (   0.1250000   0.2165064   0.8985623  )
         6           B   tau(   6) = (  -0.3750000   0.6495191   0.8985623  )
         7           N   tau(   7) = (   0.7500005   0.2886748   0.8985623  )
         8           N   tau(   8) = (   0.3750005   0.5051812   0.8985623  )
         9           N   tau(   9) = (   0.3750005   0.0721685   0.8985623  )
        10           N   tau(  10) = (   0.6250005   0.0721685   0.8985623  )
        11           N   tau(  11) = (   0.2500005   0.2886748   0.8985623  )
        12           N   tau(  12) = (   0.6250005   0.5051812   0.8985623  )
        13           N   tau(  13) = (   0.0000005   0.2886748   0.8985623  )
        14           N   tau(  14) = (   0.2500005   0.7216875   0.8985623  )
        15           N   tau(  15) = (  -0.2499995   0.7216875   0.8985623  )
        16           B   tau(  16) = (   0.0000000   0.4330127   0.8985623  )
        17           B   tau(  17) = (   0.1250000   0.6495191   0.8985623  )
        18           B   tau(  18) = (  -0.1250000   0.6495191   0.8985623  )
        19           B   tau(  19) = (   0.3750000   0.2165064   0.8985623  )
        20           B   tau(  20) = (   0.6250000   0.2165064   0.8985623  )
        21           B   tau(  21) = (   0.5000000   0.4330127   0.8985623  )
        22           N   tau(  22) = (   0.5000005   0.2886748   0.8985623  )
        23           B   tau(  23) = (  -0.2500000   0.4330127   0.8985623  )
        24           B   tau(  24) = (   0.2500000   0.4330127   0.8985623  )
        25           B   tau(  25) = (   0.5000000   0.0000000   0.8985623  )
        26           N   tau(  26) = (  -0.1249995   0.5051812   0.8985623  )
        27           N   tau(  27) = (   0.1250005   0.5051812   0.8985623  )
        28           N   tau(  28) = (   0.0000005   0.7216875   0.8985623  )
        29           N   tau(  29) = (   0.5000005   0.7216875   0.8985623  )
        30           N   tau(  30) = (   0.1250005   0.0721685   0.8985623  )
        31           N   tau(  31) = (   0.8750005   0.0721685   0.8985623  )
        32           B   tau(  32) = (   0.0000000   0.0000000   0.8985623  )
        33           Cr1 tau(  33) = (   0.3930000   0.2598076   1.2040735  )
        34           Cr2 tau(  34) = (   0.1070000   0.2598076   1.2040735  )

     number of k points=    15  Gaussian smearing, width (Ry)=  0.0000
                       cart. coord. in units 2pi/alat
        k(    1) = (   0.1666667   0.2886751   0.0000000), wk =   0.0740741
        k(    2) = (   0.1666667  -0.4811252   0.0000000), wk =   0.0740741
        k(    3) = (   0.1666667  -0.0962250   0.0000000), wk =   0.0740741
        k(    4) = (  -0.5000000  -0.8660254   0.0000000), wk =   0.0370370
        k(    5) = (  -0.1666667   0.2886751   0.0000000), wk =   0.0740741
        k(    6) = (   0.3333333   0.0000000   0.0000000), wk =   0.0740741
        k(    7) = (  -0.1666667  -0.4811252   0.0000000), wk =   0.0740741
        k(    8) = (   0.5000000  -0.0962250   0.0000000), wk =   0.0740741
        k(    9) = (  -0.3333333  -0.3849002   0.0000000), wk =   0.0740741
        k(   10) = (   0.5000000   0.0962250   0.0000000), wk =   0.0740741
        k(   11) = (  -0.3333333   0.3849002   0.0000000), wk =   0.0740741
        k(   12) = (  -0.1666667  -0.0962250   0.0000000), wk =   0.0740741
        k(   13) = (  -0.0000000  -0.1924501   0.0000000), wk =   0.0740741
        k(   14) = (   0.5000000  -0.8660254   0.0000000), wk =   0.0370370
        k(   15) = (  -1.0000000   0.0000000   0.0000000), wk =   0.0370370

     Dense  grid:  1741401 G-vectors     FFT dimensions: ( 135, 135, 240)

     Smooth grid:   474235 G-vectors     FFT dimensions: (  90,  90, 160)

     Estimated max dynamical RAM per process >     218.62 MB

     Estimated total dynamical RAM >      10.25 GB
     Generating pointlists ...
     new r_m :   0.0595 (alat units)  1.1269 (a.u.) for type    1
     new r_m :   0.0595 (alat units)  1.1269 (a.u.) for type    2
     new r_m :   0.1180 (alat units)  2.2330 (a.u.) for type    3
     new r_m :   0.1180 (alat units)  2.2330 (a.u.) for type    4

     Initial potential from superposition of free atoms

     starting charge  155.99382, renormalised to  156.00000

     negative rho (up, down):  6.708E-03 4.655E-04
     Starting wfcs are  148 randomized atomic wfcs
     Checking if some PAW data can be deallocated... 

     total cpu time spent up to now is       21.1 secs

     Self-consistent Calculation

     iteration #  1     ecut=    48.00 Ry     beta= 0.50
     Davidson diagonalization with overlap
     ethr =  1.00E-02,  avg # of iterations =  2.8

     negative rho (up, down):  4.889E-03 2.908E-03

     total cpu time spent up to now is       65.0 secs

     total energy              =   -1130.72918745 Ry
     estimated scf accuracy    <      11.38714434 Ry

     total magnetization       =    12.00 Bohr mag/cell
     absolute magnetization    =    12.12 Bohr mag/cell

     iteration #  2     ecut=    48.00 Ry     beta= 0.50
     Davidson diagonalization with overlap
     ethr =  7.30E-03,  avg # of iterations =  2.8

     negative rho (up, down):  8.461E-03 7.531E-03

     total cpu time spent up to now is      106.4 secs

     total energy              =   -1132.99340749 Ry
     estimated scf accuracy    <       3.60716557 Ry

     total magnetization       =    10.00 Bohr mag/cell
     absolute magnetization    =    10.12 Bohr mag/cell

     iteration #  3     ecut=    48.00 Ry     beta= 0.50
     Davidson diagonalization with overlap
     ethr =  2.31E-03,  avg # of iterations =  6.7

     negative rho (up, down):  3.762E-03 3.690E-03

     total cpu time spent up to now is      147.8 secs

     total energy              =   -1133.57557899 Ry
     estimated scf accuracy    <       0.77892735 Ry

     total magnetization       =    12.00 Bohr mag/cell
     absolute magnetization    =    12.06 Bohr mag/cell

     iteration #  4     ecut=    48.00 Ry     beta= 0.50
     Davidson diagonalization with overlap
     ethr =  4.99E-04,  avg # of iterations =  7.1

     negative rho (up, down):  6.992E-03 7.798E-03

     total cpu time spent up to now is      188.7 secs

     total energy              =   -1133.77664400 Ry
     estimated scf accuracy    <       0.49903623 Ry

     total magnetization       =    10.00 Bohr mag/cell
     absolute magnetization    =    10.02 Bohr mag/cell

     iteration #  5     ecut=    48.00 Ry     beta= 0.50
     Davidson diagonalization with overlap
     ethr =  3.20E-04,  avg # of iterations =  6.8

     negative rho (up, down):  4.612E-03 4.772E-03

     total cpu time spent up to now is      230.9 secs

     total energy              =   -1133.81439650 Ry
     estimated scf accuracy    <       0.03436600 Ry

     total magnetization       =    10.00 Bohr mag/cell
     absolute magnetization    =    10.03 Bohr mag/cell

     iteration #  6     ecut=    48.00 Ry     beta= 0.50
     Davidson diagonalization with overlap
     ethr =  2.20E-05,  avg # of iterations = 11.5

     negative rho (up, down):  3.831E-03 3.917E-03

     total cpu time spent up to now is      284.3 secs

     total energy              =   -1133.81908564 Ry
     estimated scf accuracy    <       0.05088120 Ry

     total magnetization       =    10.00 Bohr mag/cell
     absolute magnetization    =    10.02 Bohr mag/cell

     iteration #  7     ecut=    48.00 Ry     beta= 0.50
     Davidson diagonalization with overlap
     ethr =  2.20E-05,  avg # of iterations =  6.3

     negative rho (up, down):  3.389E-03 3.822E-03

     total cpu time spent up to now is      325.9 secs

     total energy              =   -1133.82703709 Ry
     estimated scf accuracy    <       0.00137601 Ry

     total magnetization       =    10.00 Bohr mag/cell
     absolute magnetization    =    10.02 Bohr mag/cell

     iteration #  8     ecut=    48.00 Ry     beta= 0.50
     Davidson diagonalization with overlap
     ethr =  8.82E-07,  avg # of iterations =  8.1

     negative rho (up, down):  3.222E-03 3.735E-03

     total cpu time spent up to now is      373.7 secs

     total energy              =   -1133.82769804 Ry
     estimated scf accuracy    <       0.00023243 Ry

     total magnetization       =    10.00 Bohr mag/cell
     absolute magnetization    =    10.01 Bohr mag/cell

     iteration #  9     ecut=    48.00 Ry     beta= 0.50
     Davidson diagonalization with overlap
     ethr =  1.49E-07,  avg # of iterations =  3.6

     negative rho (up, down):  3.160E-03 3.734E-03

     total cpu time spent up to now is      410.1 secs

     total energy              =   -1133.82784991 Ry
     estimated scf accuracy    <       0.00005530 Ry

     total magnetization       =    10.00 Bohr mag/cell
     absolute magnetization    =    10.01 Bohr mag/cell

     iteration # 10     ecut=    48.00 Ry     beta= 0.50
     Davidson diagonalization with overlap
     ethr =  3.54E-08,  avg # of iterations =  4.9

     negative rho (up, down):  3.151E-03 3.748E-03

     total cpu time spent up to now is      455.1 secs

     total energy              =   -1133.82791295 Ry
     estimated scf accuracy    <       0.00002529 Ry

     total magnetization       =    10.00 Bohr mag/cell
     absolute magnetization    =    10.01 Bohr mag/cell

     iteration # 11     ecut=    48.00 Ry     beta= 0.50
     Davidson diagonalization with overlap
     ethr =  1.62E-08,  avg # of iterations =  4.1

     negative rho (up, down):  3.137E-03 3.758E-03

     total cpu time spent up to now is      492.0 secs

     total energy              =   -1133.82793452 Ry
     estimated scf accuracy    <       0.00001002 Ry

     total magnetization       =    10.00 Bohr mag/cell
     absolute magnetization    =    10.01 Bohr mag/cell

     iteration # 12     ecut=    48.00 Ry     beta= 0.50
     Davidson diagonalization with overlap
     ethr =  6.42E-09,  avg # of iterations =  4.2

     negative rho (up, down):  3.132E-03 3.769E-03

     total cpu time spent up to now is      528.1 secs

     total energy              =   -1133.82794168 Ry
     estimated scf accuracy    <       0.00000107 Ry

     total magnetization       =    10.00 Bohr mag/cell
     absolute magnetization    =    10.01 Bohr mag/cell

     iteration # 13     ecut=    48.00 Ry     beta= 0.50
     Davidson diagonalization with overlap
     ethr =  6.83E-10,  avg # of iterations =  4.9

     negative rho (up, down):  3.127E-03 3.774E-03

     total cpu time spent up to now is      567.3 secs

     total energy              =   -1133.82794448 Ry
     estimated scf accuracy    <       0.00000027 Ry

     total magnetization       =    10.00 Bohr mag/cell
     absolute magnetization    =    10.01 Bohr mag/cell

     iteration # 14     ecut=    48.00 Ry     beta= 0.50
     Davidson diagonalization with overlap
     ethr =  1.72E-10,  avg # of iterations =  4.8

     negative rho (up, down):  3.125E-03 3.775E-03
 
     Magnetic moment per site:
     atom:    1    charge:    0.8810    magn:    0.0007    constr:    0.0000
     atom:    2    charge:    0.8803    magn:    0.0002    constr:    0.0000
     atom:    3    charge:    0.8798    magn:    0.0004    constr:    0.0000
     atom:    4    charge:    0.8805    magn:    0.0001    constr:    0.0000
     atom:    5    charge:    0.8806    magn:    0.0004    constr:    0.0000
     atom:    6    charge:    0.8803    magn:    0.0001    constr:    0.0000
     atom:    7    charge:    2.8610    magn:    0.0002    constr:    0.0000
     atom:    8    charge:    2.8607    magn:    0.0018    constr:    0.0000
     atom:    9    charge:    2.8606    magn:    0.0046    constr:    0.0000
     atom:   10    charge:    2.8609    magn:    0.0008    constr:    0.0000
     atom:   11    charge:    2.8605    magn:    0.0078    constr:    0.0000
     atom:   12    charge:    2.8610    magn:    0.0003    constr:    0.0000
     atom:   13    charge:    2.8596    magn:    0.0052    constr:    0.0000
     atom:   14    charge:    2.8599    magn:    0.0002    constr:    0.0000
     atom:   15    charge:    2.8599    magn:    0.0000    constr:    0.0000
     atom:   16    charge:    0.8802    magn:    0.0004    constr:    0.0000
     atom:   17    charge:    0.8799    magn:    0.0002    constr:    0.0000
     atom:   18    charge:    0.8800    magn:    0.0001    constr:    0.0000
     atom:   19    charge:    0.8801    magn:    0.0004    constr:    0.0000
     atom:   20    charge:    0.8804    magn:    0.0007    constr:    0.0000
     atom:   21    charge:    0.8799    magn:    0.0004    constr:    0.0000
     atom:   22    charge:    2.8609    magn:    0.0052    constr:    0.0000
     atom:   23    charge:    0.8803    magn:    0.0002    constr:    0.0000
     atom:   24    charge:    0.8792    magn:    0.0003    constr:    0.0000
     atom:   25    charge:    0.8800    magn:    0.0003    constr:    0.0000
     atom:   26    charge:    2.8599    magn:    0.0003    constr:    0.0000
     atom:   27    charge:    2.8596    magn:    0.0018    constr:    0.0000
     atom:   28    charge:    2.8598    magn:    0.0002    constr:    0.0000
     atom:   29    charge:    2.8596    magn:    0.0002    constr:    0.0000
     atom:   30    charge:    2.8593    magn:    0.0046    constr:    0.0000
     atom:   31    charge:    2.8596    magn:    0.0008    constr:    0.0000
     atom:   32    charge:    0.8803    magn:    0.0003    constr:    0.0000
     atom:   33    charge:   12.5475    magn:    4.2589    constr:    0.0000
     atom:   34    charge:   12.5475    magn:    4.2589    constr:    0.0000

     total cpu time spent up to now is      609.5 secs

     End of self-consistent calculation

 ------ SPIN UP ------------


          k = 0.1667 0.2887 0.0000 ( 59267 PWs)   bands (ev):

   -72.8904 -72.8833 -44.4319 -44.3600 -44.2948 -44.2878 -44.2680 -44.2605
   -21.2479 -20.6634 -20.6547 -20.1112 -20.0912 -19.5905 -19.5812 -19.1001
   -18.7001 -18.6905 -18.4635 -18.4455 -18.1951 -18.0865 -18.0771 -17.8498
   -12.4857 -12.2110 -12.1986 -11.8227 -11.8172 -11.6587 -11.1940 -11.1887
   -10.3927 -10.3688 -10.1192 -10.1145  -9.5903  -9.5884  -8.8440  -8.8255
    -8.8205  -8.7692  -8.7595  -8.5968  -8.1975  -8.0518  -8.0199  -7.8316
    -7.8258  -7.4390  -7.4376  -7.2905  -7.2539  -7.2098  -7.2058  -6.9660
    -6.9504  -6.5649  -6.5423  -6.1546  -6.1529  -5.8727  -5.4188  -5.2951
    -5.2783  -5.2007  -4.9223  -4.8932  -4.5068  -4.3579  -4.3408  -3.9802
    -2.8442  -2.0284  -1.9547  -1.8346  -1.6601  -1.6016  -1.5035  -1.4886
    -1.4487  -1.3867  -1.3277  -0.7318   0.6583   0.9736   1.0575   1.1446
     1.2763   1.4622   1.4935   1.5866   1.6050   1.7717

          k = 0.1667-0.4811 0.0000 ( 59291 PWs)   bands (ev):

   -72.8904 -72.8833 -44.4319 -44.3600 -44.2948 -44.2878 -44.2680 -44.2605
   -21.1179 -20.9124 -20.7239 -20.1617 -19.8051 -19.4673 -19.3173 -19.1759
   -19.0146 -18.7801 -18.6423 -18.5436 -18.1497 -18.0887 -17.9228 -17.7240
   -12.3500 -12.1148 -12.0448 -11.9072 -11.6813 -11.6583 -11.5533 -10.9421
   -10.8916 -10.6253 -10.5232  -9.8611  -9.6942  -9.3366  -9.1115  -8.6711
    -8.6236  -8.5541  -8.3893  -8.3672  -8.1619  -8.1262  -8.0643  -8.0498
    -7.6894  -7.6238  -7.4952  -7.4741  -7.3587  -7.1717  -7.0678  -6.8625
    -6.6224  -6.3899  -6.1785  -6.1581  -5.9759  -5.9294  -5.7842  -5.7449
    -5.4518  -5.4000  -5.2117  -5.0411  -4.4456  -4.3473  -4.0911  -3.7677
    -2.8413  -2.0284  -1.9543  -1.8313  -1.6588  -1.6019  -1.5065  -1.4896
    -1.4497  -1.3864  -1.3276  -0.7355   0.5727   0.9627   1.0520   1.1189
     1.2023   1.2573   1.3561   1.8420   1.8998   2.1368

          k = 0.1667-0.0962 0.0000 ( 59226 PWs)   bands (ev):

   -72.8904 -72.8833 -44.4319 -44.3600 -44.2948 -44.2877 -44.2680 -44.2605
   -21.3143 -20.5372 -20.3461 -20.3396 -19.9882 -19.9825 -19.8057 -18.7290
   -18.7248 -18.3796 -18.3630 -18.3590 -18.2736 -18.2559 -18.0763 -18.0721
   -12.5114 -12.5007 -12.4084 -11.5816 -11.5778 -11.4322 -11.4155 -10.9268
   -10.9244  -9.9296  -9.9278  -9.6770  -9.3800  -9.3694  -9.2309  -9.2286
    -9.0424  -9.0409  -8.9254  -8.3238  -8.3223  -7.9042  -7.8978  -7.8843
    -7.8457  -7.7706  -7.6121  -7.5824  -7.1371  -7.0935  -6.9600  -6.8881
    -6.8862  -6.8516  -6.5308  -6.5294  -6.2578  -5.3515  -5.3199  -5.1437
    -5.0657  -4.8144  -4.7894  -4.7586  -4.6245  -4.5979  -4.3532  -4.3324
    -2.8472  -2.0284  -1.9551  -1.8379  -1.6626  -1.6013  -1.5009  -1.4877
    -1.4476  -1.3872  -1.3279  -0.7278   0.7539   0.9407   1.0204   1.1686
     1.2875   1.3266   1.5748   1.5862   1.6753   1.9084

          k =-0.5000-0.8660 0.0000 ( 59292 PWs)   bands (ev):

   -72.8904 -72.8833 -44.4319 -44.3600 -44.2948 -44.2878 -44.2680 -44.2605
   -21.0539 -21.0445 -20.4699 -20.4650 -19.4298 -19.4274 -19.4104 -19.4055
   -18.9953 -18.9866 -18.3306 -18.3263 -18.3189 -18.3020 -17.7925 -17.7899
   -12.0733 -12.0707 -12.0667 -12.0534 -11.8773 -11.8752 -11.3314 -11.3269
   -10.2352 -10.2344 -10.1365 -10.1317 -10.1298 -10.1265  -8.5908  -8.5533
    -8.5490  -8.5475  -8.5456  -8.5360  -7.8660  -7.8631  -7.8614  -7.8596
    -7.8221  -7.8193  -7.7825  -7.7547  -7.4936  -7.4833  -6.6107  -6.6098
    -6.3628  -6.3296  -6.3186  -6.2877  -6.1928  -6.1853  -5.7094  -5.7012
    -5.5486  -5.5395  -4.7279  -4.7191  -4.7055  -4.6876  -3.8865  -3.8700
    -2.8285  -2.0261  -1.9539  -1.8335  -1.6595  -1.6024  -1.5059  -1.4891
    -1.4562  -1.3908  -1.3284  -0.8566   0.7462   1.0633   1.0859   1.2133
     1.4476   1.5319   1.5659   1.6062   1.6263   1.7626

          k =-0.1667 0.2887 0.0000 ( 59267 PWs)   bands (ev):

   -72.8904 -72.8833 -44.4319 -44.3600 -44.2948 -44.2878 -44.2680 -44.2605
   -21.2479 -20.6635 -20.6547 -20.1112 -20.0912 -19.5905 -19.5811 -19.1001
   -18.7002 -18.6905 -18.4635 -18.4455 -18.1951 -18.0866 -18.0770 -17.8498
   -12.4857 -12.2110 -12.1986 -11.8227 -11.8172 -11.6587 -11.1940 -11.1886
   -10.3927 -10.3688 -10.1193 -10.1145  -9.5903  -9.5884  -8.8440  -8.8255
    -8.8204  -8.7693  -8.7595  -8.5968  -8.1976  -8.0518  -8.0199  -7.8316
    -7.8258  -7.4390  -7.4376  -7.2905  -7.2539  -7.2098  -7.2058  -6.9661
    -6.9505  -6.5649  -6.5423  -6.1546  -6.1528  -5.8727  -5.4189  -5.2951
    -5.2783  -5.2006  -4.9223  -4.8932  -4.5068  -4.3580  -4.3407  -3.9802
    -2.8442  -2.0284  -1.9547  -1.8346  -1.6601  -1.6016  -1.5035  -1.4886
    -1.4487  -1.3867  -1.3277  -0.7318   0.6583   0.9736   1.0575   1.1446
     1.2763   1.4622   1.4935   1.5865   1.6050   1.7717

          k = 0.3333 0.0000 0.0000 ( 59267 PWs)   bands (ev):

   -72.8904 -72.8833 -44.4319 -44.3600 -44.2948 -44.2877 -44.2680 -44.2606
   -21.2474 -20.6883 -20.6296 -20.1116 -20.0893 -19.6155 -19.5580 -19.1023
   -18.7164 -18.6689 -18.4665 -18.4445 -18.1909 -18.1092 -18.0609 -17.8489
   -12.4841 -12.2148 -12.1958 -11.8320 -11.8108 -11.6574 -11.2106 -11.1712
   -10.3928 -10.3674 -10.1340 -10.1014  -9.5965  -9.5806  -8.8444  -8.8287
    -8.8140  -8.7896  -8.7405  -8.5972  -8.1998  -8.1069  -7.9638  -7.8297
    -7.8252  -7.4465  -7.4303  -7.3023  -7.2360  -7.2186  -7.1963  -6.9686
    -6.9499  -6.6228  -6.4920  -6.1573  -6.1493  -5.8801  -5.4192  -5.3179
    -5.2433  -5.2008  -4.9313  -4.8868  -4.4983  -4.3907  -4.3215  -3.9787
    -2.8358  -2.0268  -1.9545  -1.8362  -1.6619  -1.6019  -1.5030  -1.4881
    -1.4521  -1.3898  -1.3282  -0.8159   0.7690   1.0694   1.2051   1.2438
     1.2598   1.4601   1.5111   1.5559   1.5935   1.7365

          k =-0.1667-0.4811 0.0000 ( 59291 PWs)   bands (ev):

   -72.8904 -72.8833 -44.4319 -44.3600 -44.2948 -44.2878 -44.2680 -44.2605
   -21.1179 -20.9124 -20.7239 -20.1617 -19.8051 -19.4673 -19.3173 -19.1759
   -19.0146 -18.7801 -18.6423 -18.5435 -18.1497 -18.0887 -17.9228 -17.7240
   -12.3500 -12.1148 -12.0448 -11.9071 -11.6813 -11.6583 -11.5533 -10.9421
   -10.8916 -10.6253 -10.5232  -9.8611  -9.6942  -9.3366  -9.1115  -8.6711
    -8.6236  -8.5541  -8.3893  -8.3672  -8.1619  -8.1262  -8.0643  -8.0498
    -7.6894  -7.6239  -7.4951  -7.4740  -7.3587  -7.1716  -7.0678  -6.8625
    -6.6225  -6.3900  -6.1785  -6.1581  -5.9759  -5.9293  -5.7842  -5.7449
    -5.4518  -5.4000  -5.2117  -5.0412  -4.4456  -4.3473  -4.0911  -3.7677
    -2.8413  -2.0284  -1.9543  -1.8313  -1.6588  -1.6019  -1.5065  -1.4896
    -1.4497  -1.3864  -1.3276  -0.7355   0.5727   0.9627   1.0520   1.1189
     1.2023   1.2573   1.3562   1.8420   1.8999   2.1368

          k = 0.5000-0.0962 0.0000 ( 59291 PWs)   bands (ev):

   -72.8904 -72.8833 -44.4319 -44.3600 -44.2948 -44.2878 -44.2680 -44.2606
   -21.1148 -20.9209 -20.7183 -20.1600 -19.8051 -19.4688 -19.3245 -19.1700
   -19.0159 -18.7803 -18.6317 -18.5504 -18.1380 -18.1057 -17.9190 -17.7238
   -12.3474 -12.1157 -12.0430 -11.9120 -11.6947 -11.6435 -11.5551 -10.9437
   -10.8880 -10.6225 -10.5264  -9.8592  -9.6945  -9.3374  -9.1110  -8.6597
    -8.6239  -8.5515  -8.4047  -8.3917  -8.1599  -8.1035  -8.0771  -8.0378
    -7.6851  -7.6244  -7.4942  -7.4755  -7.3525  -7.1725  -7.0691  -6.8608
    -6.6230  -6.3987  -6.1991  -6.1577  -5.9574  -5.9293  -5.7833  -5.7490
    -5.4528  -5.3999  -5.1859  -5.0574  -4.4213  -4.3800  -4.0856  -3.7674
    -2.8285  -2.0261  -1.9539  -1.8335  -1.6602  -1.6024  -1.5059  -1.4892
    -1.4561  -1.3909  -1.3284  -0.8564   0.7287   1.0488   1.1047   1.2132
     1.2879   1.3573   1.4885   1.7545   1.8378   1.8673

          k =-0.3333-0.3849 0.0000 ( 59291 PWs)   bands (ev):

   -72.8904 -72.8833 -44.4319 -44.3600 -44.2948 -44.2878 -44.2680 -44.2606
   -21.1159 -20.9179 -20.7204 -20.1598 -19.8071 -19.4671 -19.3191 -19.1734
   -19.0193 -18.7781 -18.6332 -18.5498 -18.1402 -18.1029 -17.9192 -17.7240
   -12.3492 -12.1122 -12.0461 -11.9095 -11.6829 -11.6570 -11.5546 -10.9433
   -10.8887 -10.6221 -10.5265  -9.8591  -9.6945  -9.3379  -9.1123  -8.6629
    -8.6229  -8.5535  -8.3914  -8.3892  -8.1613  -8.1123  -8.0644  -8.0523
    -7.6856  -7.6227  -7.5008  -7.4690  -7.3507  -7.1725  -7.0697  -6.8699
    -6.6212  -6.3910  -6.1810  -6.1601  -5.9702  -5.9276  -5.7834  -5.7599
    -5.4528  -5.3928  -5.1872  -5.0585  -4.4239  -4.3768  -4.0852  -3.7677
    -2.8328  -2.0270  -1.9540  -1.8327  -1.6593  -1.6023  -1.5061  -1.4893
    -1.4542  -1.3893  -1.3282  -0.8195   0.6773   1.0371   1.1131   1.2083
     1.2249   1.3155   1.3738   1.8199   1.8896   1.9237

          k = 0.5000 0.0962 0.0000 ( 59291 PWs)   bands (ev):

   -72.8904 -72.8833 -44.4319 -44.3600 -44.2948 -44.2878 -44.2680 -44.2606
   -21.1148 -20.9209 -20.7183 -20.1600 -19.8051 -19.4688 -19.3245 -19.1700
   -19.0159 -18.7803 -18.6317 -18.5504 -18.1380 -18.1057 -17.9190 -17.7237
   -12.3474 -12.1157 -12.0430 -11.9120 -11.6947 -11.6435 -11.5551 -10.9437
   -10.8880 -10.6226 -10.5264  -9.8592  -9.6945  -9.3374  -9.1110  -8.6597
    -8.6240  -8.5515  -8.4047  -8.3917  -8.1599  -8.1035  -8.0771  -8.0377
    -7.6851  -7.6244  -7.4942  -7.4755  -7.3525  -7.1725  -7.0690  -6.8609
    -6.6229  -6.3987  -6.1991  -6.1576  -5.9574  -5.9292  -5.7834  -5.7490
    -5.4528  -5.4000  -5.1859  -5.0573  -4.4213  -4.3800  -4.0856  -3.7674
    -2.8285  -2.0261  -1.9539  -1.8335  -1.6602  -1.6024  -1.5059  -1.4892
    -1.4561  -1.3909  -1.3284  -0.8564   0.7287   1.0488   1.1047   1.2132
     1.2879   1.3573   1.4886   1.7545   1.8378   1.8674

          k =-0.3333 0.3849 0.0000 ( 59291 PWs)   bands (ev):

   -72.8904 -72.8833 -44.4319 -44.3600 -44.2948 -44.2878 -44.2680 -44.2606
   -21.1159 -20.9180 -20.7204 -20.1598 -19.8071 -19.4671 -19.3191 -19.1734
   -19.0193 -18.7781 -18.6332 -18.5498 -18.1401 -18.1029 -17.9192 -17.7240
   -12.3492 -12.1122 -12.0461 -11.9095 -11.6829 -11.6570 -11.5546 -10.9433
   -10.8887 -10.6221 -10.5265  -9.8591  -9.6944  -9.3379  -9.1123  -8.6629
    -8.6229  -8.5534  -8.3914  -8.3892  -8.1613  -8.1123  -8.0644  -8.0522
    -7.6856  -7.6227  -7.5008  -7.4689  -7.3507  -7.1725  -7.0698  -6.8699
    -6.6213  -6.3910  -6.1810  -6.1601  -5.9702  -5.9277  -5.7833  -5.7599
    -5.4527  -5.3928  -5.1872  -5.0585  -4.4239  -4.3768  -4.0851  -3.7677
    -2.8328  -2.0270  -1.9540  -1.8327  -1.6593  -1.6023  -1.5061  -1.4893
    -1.4542  -1.3893  -1.3282  -0.8195   0.6773   1.0371   1.1131   1.2083
     1.2249   1.3155   1.3738   1.8199   1.8896   1.9238

          k =-0.1667-0.0962 0.0000 ( 59226 PWs)   bands (ev):

   -72.8904 -72.8833 -44.4319 -44.3600 -44.2948 -44.2877 -44.2680 -44.2605
   -21.3143 -20.5372 -20.3461 -20.3397 -19.9882 -19.9825 -19.8057 -18.7290
   -18.7248 -18.3796 -18.3631 -18.3590 -18.2736 -18.2559 -18.0763 -18.0721
   -12.5115 -12.5007 -12.4084 -11.5816 -11.5778 -11.4322 -11.4156 -10.9268
   -10.9244  -9.9296  -9.9278  -9.6769  -9.3800  -9.3694  -9.2309  -9.2286
    -9.0424  -9.0409  -8.9254  -8.3238  -8.3224  -7.9042  -7.8977  -7.8843
    -7.8456  -7.7707  -7.6120  -7.5824  -7.1371  -7.0935  -6.9600  -6.8881
    -6.8862  -6.8516  -6.5307  -6.5293  -6.2578  -5.3515  -5.3199  -5.1436
    -5.0658  -4.8144  -4.7893  -4.7587  -4.6245  -4.5979  -4.3532  -4.3324
    -2.8472  -2.0284  -1.9551  -1.8379  -1.6626  -1.6013  -1.5009  -1.4877
    -1.4476  -1.3872  -1.3279  -0.7278   0.7539   0.9407   1.0204   1.1686
     1.2875   1.3266   1.5749   1.5862   1.6754   1.9083

          k =-0.0000-0.1925 0.0000 ( 59226 PWs)   bands (ev):

   -72.8904 -72.8833 -44.4319 -44.3600 -44.2948 -44.2878 -44.2680 -44.2605
   -21.3144 -20.5315 -20.3606 -20.3348 -19.9908 -19.9716 -19.8100 -18.7356
   -18.7137 -18.4085 -18.3613 -18.3511 -18.2548 -18.2540 -18.0869 -18.0675
   -12.5156 -12.4975 -12.4076 -11.5877 -11.5719 -11.4327 -11.4136 -10.9291
   -10.9236  -9.9340  -9.9242  -9.6767  -9.3781  -9.3685  -9.2329  -9.2283
    -9.0422  -9.0419  -8.9260  -8.3264  -8.3193  -7.9041  -7.8974  -7.8637
    -7.8431  -7.7727  -7.6427  -7.5895  -7.1168  -7.0839  -6.9585  -6.8927
    -6.8834  -6.8655  -6.5345  -6.5245  -6.2586  -5.3492  -5.3110  -5.1438
    -5.0655  -4.8612  -4.7913  -4.7487  -4.5941  -4.5892  -4.3648  -4.3319
    -2.8513  -2.0292  -1.9552  -1.8371  -1.6617  -1.6011  -1.5011  -1.4881
    -1.4461  -1.3856  -1.3276  -0.6788   0.6794   0.8540   1.0141   1.1429
     1.2188   1.3990   1.5527   1.5868   1.7069   1.9552

          k = 0.5000-0.8660 0.0000 ( 59292 PWs)   bands (ev):

   -72.8904 -72.8833 -44.4319 -44.3600 -44.2948 -44.2878 -44.2680 -44.2605
   -21.0540 -21.0445 -20.4699 -20.4650 -19.4298 -19.4275 -19.4104 -19.4055
   -18.9954 -18.9865 -18.3306 -18.3264 -18.3190 -18.3019 -17.7925 -17.7899
   -12.0733 -12.0707 -12.0668 -12.0533 -11.8773 -11.8752 -11.3315 -11.3268
   -10.2352 -10.2344 -10.1366 -10.1317 -10.1298 -10.1265  -8.5907  -8.5533
    -8.5490  -8.5475  -8.5455  -8.5359  -7.8660  -7.8632  -7.8614  -7.8595
    -7.8222  -7.8194  -7.7825  -7.7547  -7.4937  -7.4833  -6.6107  -6.6097
    -6.3628  -6.3296  -6.3186  -6.2877  -6.1928  -6.1851  -5.7094  -5.7012
    -5.5487  -5.5396  -4.7279  -4.7191  -4.7054  -4.6877  -3.8865  -3.8700
    -2.8285  -2.0261  -1.9539  -1.8335  -1.6595  -1.6024  -1.5059  -1.4891
    -1.4562  -1.3908  -1.3284  -0.8567   0.7462   1.0633   1.0860   1.2133
     1.4476   1.5319   1.5659   1.6062   1.6265   1.7629

          k =-1.0000 0.0000 0.0000 ( 59292 PWs)   bands (ev):

   -72.8904 -72.8833 -44.4319 -44.3600 -44.2948 -44.2878 -44.2680 -44.2605
   -21.0771 -21.0182 -20.4820 -20.4579 -19.4462 -19.4082 -19.4080 -19.4036
   -19.0165 -18.9684 -18.3817 -18.3151 -18.3034 -18.2773 -17.8024 -17.7824
   -12.1169 -12.0686 -12.0448 -12.0312 -11.8857 -11.8664 -11.3511 -11.3078
   -10.2549 -10.2329 -10.1343 -10.1309 -10.1245 -10.1200  -8.6360  -8.5808
    -8.5508  -8.5326  -8.5143  -8.4897  -7.8836  -7.8736  -7.8617  -7.8507
    -7.8169  -7.8120  -7.7975  -7.7554  -7.5156  -7.4641  -6.6155  -6.6013
    -6.3790  -6.3211  -6.2960  -6.2797  -6.2098  -6.1709  -5.7486  -5.6715
    -5.5680  -5.5207  -4.8169  -4.7239  -4.6636  -4.6377  -3.8966  -3.8633
    -2.8454  -2.0290  -1.9545  -1.8305  -1.6585  -1.6018  -1.5065  -1.4897
    -1.4470  -1.3849  -1.3272  -0.6872   0.5315   0.8424   1.0498   1.0926
     1.2244   1.4296   1.5732   1.6196   1.6379   1.9334

 ------ SPIN DOWN ----------


          k = 0.1667 0.2887 0.0000 ( 59267 PWs)   bands (ev):

   -68.6895 -68.6813 -40.3542 -40.2687 -40.1176 -40.1092 -40.0636 -40.0546
   -21.2438 -20.6605 -20.6496 -20.1067 -20.0876 -19.5878 -19.5759 -19.0960
   -18.6968 -18.6848 -18.4591 -18.4416 -18.1903 -18.0833 -18.0726 -17.8454
   -12.4827 -12.2078 -12.1961 -11.8203 -11.8146 -11.6564 -11.1918 -11.1851
   -10.3896 -10.3657 -10.1169 -10.1107  -9.5878  -9.5852  -8.8301  -8.8172
    -8.8153  -8.7674  -8.7563  -8.5942  -8.1951  -8.0261  -8.0099  -7.8290
    -7.8234  -7.4361  -7.4337  -7.2702  -7.2398  -7.2078  -7.2027  -6.9633
    -6.9481  -6.5422  -6.5339  -6.1520  -6.1501  -5.8561  -5.4157  -5.2755
    -5.2622  -5.1979  -4.9066  -4.8805  -4.4901  -4.3433  -4.3295  -3.9660
    -1.4303   0.3790   0.9303   1.0480   1.0994   1.1901   1.2513   1.3417
     1.3798   1.4946   1.5130   1.5720   1.6349   1.7019   1.8626   2.0186
     2.0343   2.1109   2.1385   2.1873   2.2444   2.2979

          k = 0.1667-0.4811 0.0000 ( 59291 PWs)   bands (ev):

   -68.6895 -68.6813 -40.3542 -40.2687 -40.1176 -40.1092 -40.0637 -40.0546
   -21.1134 -20.9091 -20.7196 -20.1575 -19.8011 -19.4633 -19.3134 -19.1714
   -19.0106 -18.7761 -18.6367 -18.5403 -18.1440 -18.0863 -17.9182 -17.7196
   -12.3469 -12.1118 -12.0424 -11.9046 -11.6795 -11.6552 -11.5506 -10.9393
   -10.8882 -10.6218 -10.5206  -9.8577  -9.6914  -9.3335  -9.1088  -8.6464
    -8.6210  -8.5507  -8.3870  -8.3551  -8.1593  -8.1077  -8.0621  -8.0470
    -7.6864  -7.6212  -7.4926  -7.4716  -7.3399  -7.1683  -7.0654  -6.8458
    -6.6191  -6.3742  -6.1617  -6.1555  -5.9591  -5.9262  -5.7814  -5.7298
    -5.4491  -5.3846  -5.1889  -5.0317  -4.4252  -4.3402  -4.0763  -3.7540
    -1.4209   0.3677   0.9030   0.9960   1.0810   1.1423   1.1816   1.2520
     1.3017   1.4623   1.5148   1.7434   1.7663   1.8036   1.8917   2.0844
     2.1139   2.1359   2.1688   2.1992   2.2717   2.2962

          k = 0.1667-0.0962 0.0000 ( 59226 PWs)   bands (ev):

   -68.6895 -68.6812 -40.3542 -40.2687 -40.1176 -40.1092 -40.0637 -40.0546
   -21.3102 -20.5327 -20.3422 -20.3362 -19.9834 -19.9787 -19.8022 -18.7241
   -18.7206 -18.3751 -18.3594 -18.3547 -18.2690 -18.2513 -18.0721 -18.0687
   -12.5084 -12.4980 -12.4057 -11.5787 -11.5755 -11.4292 -11.4131 -10.9237
   -10.9218  -9.9266  -9.9250  -9.6737  -9.3769  -9.3666  -9.2275  -9.2257
    -9.0397  -9.0382  -8.9060  -8.3203  -8.3192  -7.9010  -7.8952  -7.8613
    -7.8416  -7.7683  -7.5941  -7.5720  -7.1106  -7.0824  -6.9573  -6.8854
    -6.8839  -6.8407  -6.5279  -6.5269  -6.2552  -5.3276  -5.3073  -5.1408
    -5.0628  -4.7977  -4.7742  -4.7435  -4.6090  -4.5850  -4.3363  -4.3229
    -1.4396   0.3929   0.9548   1.0236   1.0675   1.1155   1.2124   1.3451
     1.4195   1.5183   1.5864   1.6328   1.7474   1.8446   1.8927   1.9266
     2.0229   2.0415   2.1137   2.1790   2.2160   2.2963

          k =-0.5000-0.8660 0.0000 ( 59292 PWs)   bands (ev):

   -68.6895 -68.6813 -40.3542 -40.2687 -40.1176 -40.1092 -40.0636 -40.0546
   -21.0511 -21.0390 -20.4659 -20.4613 -19.4252 -19.4227 -19.4060 -19.4022
   -18.9928 -18.9811 -18.3265 -18.3213 -18.3179 -18.2950 -17.7880 -17.7859
   -12.0707 -12.0672 -12.0653 -12.0496 -11.8747 -11.8730 -11.3293 -11.3231
   -10.2323 -10.2316 -10.1330 -10.1290 -10.1265 -10.1240  -8.5614  -8.5481
    -8.5459  -8.5424  -8.5405  -8.5322  -7.8629  -7.8602  -7.8589  -7.8570
    -7.8181  -7.8160  -7.7646  -7.7435  -7.4920  -7.4800  -6.6074  -6.6073
    -6.3333  -6.3118  -6.3029  -6.2787  -6.1905  -6.1816  -5.6953  -5.6868
    -5.5469  -5.5358  -4.7102  -4.7043  -4.6847  -4.6805  -3.8697  -3.8596
    -1.3965   0.1299   0.9645   0.9919   1.0596   1.2089   1.2502   1.3619
     1.4655   1.5183   1.5832   1.7079   1.7507   1.8747   1.9206   1.9245
     1.9794   2.0736   2.1922   2.2335   2.2862   2.3307

          k =-0.1667 0.2887 0.0000 ( 59267 PWs)   bands (ev):

   -68.6895 -68.6813 -40.3542 -40.2687 -40.1176 -40.1092 -40.0636 -40.0546
   -21.2438 -20.6606 -20.6496 -20.1067 -20.0876 -19.5878 -19.5758 -19.0960
   -18.6969 -18.6847 -18.4591 -18.4416 -18.1903 -18.0833 -18.0725 -17.8454
   -12.4827 -12.2078 -12.1961 -11.8203 -11.8146 -11.6565 -11.1918 -11.1850
   -10.3896 -10.3657 -10.1170 -10.1107  -9.5878  -9.5852  -8.8301  -8.8171
    -8.8153  -8.7675  -8.7563  -8.5942  -8.1951  -8.0261  -8.0099  -7.8290
    -7.8233  -7.4361  -7.4337  -7.2702  -7.2398  -7.2078  -7.2027  -6.9633
    -6.9482  -6.5422  -6.5339  -6.1520  -6.1500  -5.8561  -5.4158  -5.2755
    -5.2622  -5.1978  -4.9066  -4.8804  -4.4901  -4.3434  -4.3295  -3.9660
    -1.4303   0.3790   0.9304   1.0480   1.0994   1.1901   1.2513   1.3416
     1.3798   1.4947   1.5130   1.5720   1.6349   1.7019   1.8626   2.0187
     2.0344   2.1109   2.1386   2.1873   2.2445   2.2980

          k = 0.3333 0.0000 0.0000 ( 59267 PWs)   bands (ev):

   -68.6895 -68.6813 -40.3542 -40.2687 -40.1177 -40.1092 -40.0636 -40.0546
   -21.2434 -20.6823 -20.6277 -20.1071 -20.0860 -19.6093 -19.5560 -19.0978
   -18.7102 -18.6671 -18.4618 -18.4406 -18.1870 -18.1022 -18.0589 -17.8448
   -12.4815 -12.2107 -12.1938 -11.8286 -11.8087 -11.6551 -11.2068 -11.1694
   -10.3895 -10.3648 -10.1291 -10.0997  -9.5931  -9.5787  -8.8302  -8.8219
    -8.8082  -8.7857  -8.7393  -8.5946  -8.1969  -8.0757  -7.9599  -7.8272
    -7.8229  -7.4419  -7.4280  -7.2784  -7.2273  -7.2154  -7.1946  -6.9654
    -6.9477  -6.5940  -6.4876  -6.1543  -6.1470  -5.8613  -5.4159  -5.2946
    -5.2343  -5.1980  -4.9139  -4.8754  -4.4836  -4.3701  -4.3122  -3.9651
    -1.4147   0.2108   0.9644   1.0621   1.0949   1.1548   1.2344   1.3847
     1.4782   1.5077   1.5433   1.6135   1.7739   1.8618   1.8985   1.9199
     2.0332   2.0519   2.1389   2.1827   2.2496   2.3863

          k =-0.1667-0.4811 0.0000 ( 59291 PWs)   bands (ev):

   -68.6895 -68.6813 -40.3542 -40.2687 -40.1176 -40.1092 -40.0637 -40.0546
   -21.1134 -20.9091 -20.7196 -20.1575 -19.8012 -19.4633 -19.3134 -19.1714
   -19.0106 -18.7761 -18.6367 -18.5403 -18.1440 -18.0863 -17.9182 -17.7196
   -12.3469 -12.1118 -12.0424 -11.9045 -11.6794 -11.6552 -11.5506 -10.9393
   -10.8882 -10.6218 -10.5206  -9.8577  -9.6914  -9.3335  -9.1089  -8.6464
    -8.6209  -8.5507  -8.3869  -8.3551  -8.1592  -8.1077  -8.0621  -8.0471
    -7.6864  -7.6213  -7.4925  -7.4716  -7.3399  -7.1683  -7.0654  -6.8458
    -6.6191  -6.3742  -6.1617  -6.1555  -5.9591  -5.9261  -5.7813  -5.7298
    -5.4492  -5.3845  -5.1889  -5.0317  -4.4252  -4.3402  -4.0763  -3.7540
    -1.4209   0.3677   0.9030   0.9960   1.0810   1.1423   1.1816   1.2520
     1.3017   1.4623   1.5148   1.7434   1.7663   1.8036   1.8917   2.0843
     2.1139   2.1358   2.1687   2.1991   2.2715   2.2950

          k = 0.5000-0.0962 0.0000 ( 59291 PWs)   bands (ev):

   -68.6895 -68.6813 -40.3542 -40.2687 -40.1176 -40.1092 -40.0636 -40.0546
   -21.1108 -20.9163 -20.7149 -20.1561 -19.8012 -19.4645 -19.3196 -19.1665
   -19.0117 -18.7761 -18.6280 -18.5460 -18.1343 -18.1002 -17.9151 -17.7194
   -12.3449 -12.1126 -12.0407 -11.9087 -11.6913 -11.6420 -11.5523 -10.9405
   -10.8853 -10.6195 -10.5233  -9.8560  -9.6917  -9.3343  -9.1084  -8.6385
    -8.6210  -8.5487  -8.3921  -8.3785  -8.1574  -8.0920  -8.0736  -8.0363
    -7.6827  -7.6218  -7.4917  -7.4729  -7.3355  -7.1692  -7.0664  -6.8449
    -6.6196  -6.3795  -6.1768  -6.1551  -5.9466  -5.9259  -5.7806  -5.7323
    -5.4500  -5.3846  -5.1705  -5.0432  -4.4065  -4.3645  -4.0726  -3.7539
    -1.3965   0.1317   0.9528   0.9816   1.0660   1.1553   1.2259   1.2528
     1.3323   1.6037   1.7108   1.7348   1.8249   1.9066   1.9527   1.9889
     2.0516   2.1445   2.2057   2.2560   2.2705   2.3139

          k =-0.3333-0.3849 0.0000 ( 59291 PWs)   bands (ev):

   -68.6895 -68.6813 -40.3542 -40.2687 -40.1176 -40.1092 -40.0636 -40.0546
   -21.1117 -20.9138 -20.7167 -20.1559 -19.8028 -19.4631 -19.3150 -19.1694
   -19.0146 -18.7742 -18.6291 -18.5456 -18.1360 -18.0981 -17.9152 -17.7196
   -12.3463 -12.1097 -12.0434 -11.9067 -11.6808 -11.6539 -11.5517 -10.9401
   -10.8858 -10.6191 -10.5235  -9.8560  -9.6917  -9.3346  -9.1093  -8.6406
    -8.6203  -8.5502  -8.3883  -8.3707  -8.1588  -8.0981  -8.0623  -8.0490
    -7.6832  -7.6202  -7.4976  -7.4671  -7.3345  -7.1693  -7.0669  -6.8509
    -6.6179  -6.3746  -6.1642  -6.1568  -5.9552  -5.9246  -5.7807  -5.7402
    -5.4500  -5.3798  -5.1716  -5.0435  -4.4088  -4.3618  -4.0723  -3.7541
    -1.4049   0.1981   0.9391   0.9800   1.0587   1.1822   1.2327   1.2559
     1.3003   1.5140   1.6878   1.7558   1.8264   1.8731   1.9562   2.0146
     2.0601   2.1013   2.1450   2.2280   2.2704   2.3184

          k = 0.5000 0.0962 0.0000 ( 59291 PWs)   bands (ev):

   -68.6895 -68.6813 -40.3542 -40.2687 -40.1176 -40.1092 -40.0636 -40.0546
   -21.1108 -20.9163 -20.7149 -20.1561 -19.8012 -19.4645 -19.3196 -19.1665
   -19.0117 -18.7761 -18.6280 -18.5460 -18.1343 -18.1002 -17.9151 -17.7194
   -12.3449 -12.1126 -12.0407 -11.9088 -11.6912 -11.6420 -11.5523 -10.9405
   -10.8853 -10.6195 -10.5234  -9.8561  -9.6917  -9.3342  -9.1083  -8.6385
    -8.6210  -8.5487  -8.3921  -8.3785  -8.1574  -8.0920  -8.0735  -8.0363
    -7.6828  -7.6217  -7.4917  -7.4729  -7.3355  -7.1693  -7.0663  -6.8449
    -6.6195  -6.3795  -6.1768  -6.1550  -5.9466  -5.9259  -5.7807  -5.7323
    -5.4501  -5.3846  -5.1705  -5.0432  -4.4065  -4.3644  -4.0726  -3.7539
    -1.3965   0.1317   0.9528   0.9816   1.0660   1.1553   1.2259   1.2528
     1.3323   1.6037   1.7107   1.7348   1.8249   1.9066   1.9526   1.9888
     2.0516   2.1446   2.2058   2.2561   2.2706   2.3141

          k =-0.3333 0.3849 0.0000 ( 59291 PWs)   bands (ev):

   -68.6895 -68.6813 -40.3542 -40.2687 -40.1176 -40.1092 -40.0636 -40.0546
   -21.1117 -20.9138 -20.7166 -20.1559 -19.8028 -19.4631 -19.3150 -19.1694
   -19.0146 -18.7742 -18.6291 -18.5456 -18.1360 -18.0981 -17.9152 -17.7196
   -12.3462 -12.1097 -12.0434 -11.9067 -11.6808 -11.6539 -11.5517 -10.9402
   -10.8858 -10.6191 -10.5236  -9.8561  -9.6917  -9.3345  -9.1093  -8.6406
    -8.6203  -8.5501  -8.3884  -8.3707  -8.1588  -8.0981  -8.0623  -8.0490
    -7.6832  -7.6202  -7.4976  -7.4671  -7.3345  -7.1692  -7.0670  -6.8509
    -6.6180  -6.3746  -6.1642  -6.1568  -5.9552  -5.9247  -5.7806  -5.7402
    -5.4499  -5.3798  -5.1716  -5.0436  -4.4089  -4.3618  -4.0723  -3.7541
    -1.4049   0.1981   0.9391   0.9800   1.0587   1.1822   1.2327   1.2559
     1.3003   1.5140   1.6878   1.7558   1.8264   1.8730   1.9563   2.0145
     2.0601   2.1011   2.1451   2.2279   2.2704   2.3183

          k =-0.1667-0.0962 0.0000 ( 59226 PWs)   bands (ev):

   -68.6895 -68.6812 -40.3542 -40.2687 -40.1176 -40.1092 -40.0637 -40.0546
   -21.3102 -20.5327 -20.3422 -20.3362 -19.9834 -19.9787 -19.8022 -18.7241
   -18.7206 -18.3751 -18.3594 -18.3547 -18.2690 -18.2513 -18.0721 -18.0687
   -12.5084 -12.4981 -12.4057 -11.5787 -11.5755 -11.4292 -11.4131 -10.9236
   -10.9218  -9.9266  -9.9250  -9.6736  -9.3768  -9.3666  -9.2275  -9.2257
    -9.0397  -9.0382  -8.9060  -8.3203  -8.3193  -7.9009  -7.8952  -7.8613
    -7.8416  -7.7683  -7.5941  -7.5720  -7.1106  -7.0824  -6.9573  -6.8854
    -6.8839  -6.8407  -6.5279  -6.5269  -6.2553  -5.3276  -5.3073  -5.1407
    -5.0629  -4.7977  -4.7741  -4.7435  -4.6090  -4.5849  -4.3363  -4.3229
    -1.4396   0.3929   0.9547   1.0236   1.0675   1.1155   1.2124   1.3451
     1.4195   1.5184   1.5864   1.6328   1.7473   1.8446   1.8927   1.9266
     2.0228   2.0414   2.1140   2.1784   2.2159   2.2962

          k =-0.0000-0.1925 0.0000 ( 59226 PWs)   bands (ev):

   -68.6895 -68.6813 -40.3542 -40.2687 -40.1176 -40.1092 -40.0636 -40.0546
   -21.3103 -20.5278 -20.3557 -20.3308 -19.9869 -19.9683 -19.8058 -18.7310
   -18.7099 -18.4009 -18.3572 -18.3470 -18.2522 -18.2511 -18.0823 -18.0634
   -12.5116 -12.4956 -12.4050 -11.5849 -11.5696 -11.4290 -11.4117 -10.9261
   -10.9207  -9.9308  -9.9214  -9.6736  -9.3754  -9.3659  -9.2293  -9.2250
    -9.0393  -9.0391  -8.9064  -8.3230  -8.3160  -7.9015  -7.8950  -7.8487
    -7.8372  -7.7699  -7.6176  -7.5747  -7.1012  -7.0710  -6.9560  -6.8898
    -6.8809  -6.8506  -6.5319  -6.5221  -6.2559  -5.3303  -5.2965  -5.1409
    -5.0627  -4.8346  -4.7734  -4.7347  -4.5878  -4.5786  -4.3485  -4.3184
    -1.4470   0.5181   0.9287   1.0270   1.0341   1.1462   1.2093   1.2928
     1.3728   1.4928   1.5226   1.5684   1.7560   1.8302   1.8487   1.9932
     2.0270   2.0556   2.0995   2.1566   2.2231   2.2659

          k = 0.5000-0.8660 0.0000 ( 59292 PWs)   bands (ev):

   -68.6895 -68.6813 -40.3542 -40.2687 -40.1176 -40.1092 -40.0636 -40.0546
   -21.0511 -21.0390 -20.4659 -20.4613 -19.4252 -19.4228 -19.4060 -19.4022
   -18.9929 -18.9810 -18.3265 -18.3213 -18.3179 -18.2949 -17.7880 -17.7859
   -12.0707 -12.0672 -12.0654 -12.0495 -11.8747 -11.8730 -11.3293 -11.3230
   -10.2323 -10.2316 -10.1330 -10.1290 -10.1265 -10.1240  -8.5614  -8.5481
    -8.5460  -8.5423  -8.5405  -8.5321  -7.8629  -7.8602  -7.8589  -7.8569
    -7.8181  -7.8160  -7.7646  -7.7435  -7.4921  -7.4801  -6.6074  -6.6073
    -6.3333  -6.3118  -6.3029  -6.2787  -6.1905  -6.1814  -5.6954  -5.6868
    -5.5470  -5.5358  -4.7102  -4.7043  -4.6847  -4.6804  -3.8697  -3.8596
    -1.3964   0.1299   0.9645   0.9919   1.0596   1.2089   1.2502   1.3619
     1.4655   1.5182   1.5831   1.7078   1.7507   1.8747   1.9206   1.9245
     1.9794   2.0736   2.1921   2.2324   2.2859   2.3244

          k =-1.0000 0.0000 0.0000 ( 59292 PWs)   bands (ev):

   -68.6895 -68.6813 -40.3542 -40.2687 -40.1176 -40.1092 -40.0637 -40.0546
   -21.0712 -21.0162 -20.4774 -20.4541 -19.4411 -19.4044 -19.4044 -19.4003
   -19.0101 -18.9665 -18.3730 -18.3096 -18.3011 -18.2768 -17.7976 -17.7782
   -12.1101 -12.0662 -12.0434 -12.0304 -11.8831 -11.8646 -11.3470 -11.3062
   -10.2500 -10.2293 -10.1316 -10.1284 -10.1217 -10.1177  -8.6035  -8.5763
    -8.5480  -8.5304  -8.5136  -8.4858  -7.8793  -7.8701  -7.8585  -7.8482
    -7.8100  -7.8098  -7.7796  -7.7414  -7.5116  -7.4630  -6.6127  -6.5991
    -6.3530  -6.3006  -6.2854  -6.2718  -6.2054  -6.1689  -5.7254  -5.6629
    -5.5636  -5.5195  -4.7868  -4.7007  -4.6581  -4.6363  -3.8811  -3.8504
    -1.4286   0.4861   0.8897   1.0276   1.0700   1.1908   1.2344   1.2714
     1.2793   1.3248   1.6073   1.6353   1.6806   1.7686   1.7815   1.8975
     2.0979   2.1399   2.1453   2.2071   2.2851   2.3234

     the Fermi energy is    -1.1423 ev

!    total energy              =   -1133.82794528 Ry

     total all-electron energy =     -6753.503648 Ry
     estimated scf accuracy    <       0.00000008 Ry
     smearing contrib. (-TS)   =      -0.00000000 Ry
     internal energy E=F+TS    =   -1133.82794528 Ry

     The total energy is F=E-TS. E is the sum of the following terms:
     one-electron contribution =   -3951.64890003 Ry
     hartree contribution      =    2004.00424915 Ry
     xc contribution           =    -186.01928580 Ry
     ewald contribution        =    1359.21244893 Ry
     DFT-D3 Dispersion         =      -0.13419378 Ry
     one-center paw contrib.   =    -359.24226375 Ry

     total magnetization       =    10.00 Bohr mag/cell
     absolute magnetization    =    10.01 Bohr mag/cell

     convergence has been achieved in  14 iterations

     Writing output data file ./mytmp/Crdimer0.143-0.3.save/
 
     init_run     :     19.27s CPU     20.70s WALL (       1 calls)
     electrons    :    541.29s CPU    588.67s WALL (       1 calls)

     Called by init_run:
     wfcinit      :     13.91s CPU     14.74s WALL (       1 calls)
     potinit      :      1.85s CPU      1.99s WALL (       1 calls)
     hinit0       :      1.53s CPU      1.61s WALL (       1 calls)

     Called by electrons:
     c_bands      :    427.28s CPU    454.98s WALL (      14 calls)
     sum_band     :     81.20s CPU     92.45s WALL (      14 calls)
     v_of_rho     :      7.48s CPU      8.26s WALL (      15 calls)
     newd         :     18.08s CPU     25.20s WALL (      15 calls)
     PAW_pot      :      6.77s CPU      7.45s WALL (      15 calls)
     mix_rho      :      1.00s CPU      1.07s WALL (      14 calls)

     Called by c_bands:
     init_us_2    :      4.97s CPU      5.00s WALL (     870 calls)
     cegterg      :    414.93s CPU    442.53s WALL (     420 calls)

     Called by *egterg:
     cdiaghg      :     26.23s CPU     41.96s WALL (    2773 calls)
     h_psi        :    248.93s CPU    258.49s WALL (    2803 calls)
     s_psi        :     27.51s CPU     27.54s WALL (    2803 calls)
     g_psi        :      0.75s CPU      0.77s WALL (    2353 calls)

     Called by h_psi:
     h_psi:calbec :     29.76s CPU     30.40s WALL (    2803 calls)
     vloc_psi     :    188.60s CPU    197.35s WALL (    2803 calls)
     add_vuspsi   :     28.03s CPU     28.13s WALL (    2803 calls)

     General routines
     calbec       :     39.45s CPU     40.32s WALL (    3223 calls)
     fft          :      9.68s CPU     14.09s WALL (     369 calls)
     ffts         :      0.12s CPU      0.14s WALL (      58 calls)
     fftw         :    193.80s CPU    202.69s WALL (  252942 calls)
     interpolate  :      0.41s CPU      0.46s WALL (      30 calls)
 
     Parallel routines
     fft_scatt_xy :     31.81s CPU     32.97s WALL (  253369 calls)
     fft_scatt_yz :     80.78s CPU     89.53s WALL (  253369 calls)
 
     PWSCF        :   9m22.66s CPU  10m14.19s WALL

 
   This run was terminated on:  15:21:37   2Apr2021            

=------------------------------------------------------------------------------=
   JOB DONE.
=------------------------------------------------------------------------------=
