
     Program PWSCF v.6.7MaX starts on  2Apr2021 at 11:23:56 

     This program is part of the open-source Quantum ESPRESSO suite
     for quantum simulation of materials; please cite
         "P. Giannozzi et al., J. Phys.:Condens. Matter 21 395502 (2009);
         "P. Giannozzi et al., J. Phys.:Condens. Matter 29 465901 (2017);
          URL http://www.quantum-espresso.org", 
     in publications or presentations arising from this work. More details at
     http://www.quantum-espresso.org/quote

     Parallel version (MPI), running on    48 processors

     MPI processes distributed on     1 nodes
     R & G space division:  proc/nbgrp/npool/nimage =      48
     Reading input from Crdimer0.1405-0.3.scf.in

     Current dimensions of program PWSCF are:
     Max number of different atomic species (ntypx) = 10
     Max number of k-points (npk) =  40000
     Max angular momentum in pseudopotentials (lmaxx) =  3
     file N.pbe-n-kjpaw_psl.1.0.0.UPF: wavefunction(s)  2S renormalized
     file Cr.pbe-spn-kjpaw_psl.1.0.0.UPF: wavefunction(s)  3S 3P 3D renormalized
     file Cr.pbe-spn-kjpaw_psl.1.0.0.UPF: wavefunction(s)  3S 3P 3D renormalized

     --------------------------------------------
     Parameters for DFT-D3 Dispersion Correction:
     --------------------------------------------
       Reference C6 values for interpolation: 

         atom   Coordination number   C6
         B          0.000           214.36
         B          0.971           150.74
         B          1.944           106.23
         B          2.913            62.89
         B          4.586            56.06
         N          0.000            50.54
         N          0.994            44.25
         N          2.014            39.35
         N          2.990            31.16
         Cr1        0.000          1381.48
         Cr1        1.827           571.38
         Cr1       10.619           306.69
         Cr2        0.000          1381.48
         Cr2        1.827           571.38
         Cr2       10.619           306.69

       Values used:

         atom   Coordination number  R0_AB[au]  C6      C8
         B          3.338            3.039     62.89   2505.93
         B          3.335            3.039     62.89   2506.00
         B          3.338            3.039     62.89   2505.95
         B          3.335            3.039     62.89   2506.01
         B          3.380            3.039     62.86   2504.75
         B          3.335            3.039     62.89   2506.01
         N          3.135            2.478     31.22    688.69
         N          3.136            2.478     31.22    688.68
         N          3.140            2.478     31.22    688.65
         N          3.135            2.478     31.22    688.69
         N          3.154            2.478     31.21    688.52
         N          3.134            2.478     31.22    688.69
         N          3.149            2.478     31.21    688.56
         N          3.134            2.478     31.22    688.70
         N          3.134            2.478     31.22    688.70
         B          3.341            3.039     62.89   2505.87
         B          3.335            3.039     62.89   2506.00
         B          3.335            3.039     62.89   2506.01
         B          3.380            3.039     62.86   2504.75
         B          3.338            3.039     62.89   2505.93
         B          3.341            3.039     62.89   2505.87
         N          3.149            2.478     31.21    688.56
         B          3.336            3.039     62.89   2506.00
         B          3.343            3.039     62.89   2505.81
         B          3.337            3.039     62.89   2505.97
         N          3.134            2.478     31.22    688.69
         N          3.136            2.478     31.22    688.68
         N          3.134            2.478     31.22    688.70
         N          3.134            2.478     31.22    688.70
         N          3.140            2.478     31.22    688.65
         N          3.135            2.478     31.22    688.69
         B          3.337            3.039     62.89   2505.97
         Cr1        0.764            3.252   1277.89 117934.57
         Cr2        0.764            3.252   1277.89 117934.56

         Molecular C6 ( Ry / a.u.^6 ) =     77965.64


     Subspace diagonalization in iterative solution of the eigenvalue problem:
     one sub-group per band group will be used
     scalapack distributed-memory algorithm (size of sub-group:  6*  6 procs)

 
     Parallelization info
     --------------------
     sticks:   dense  smooth     PW     G-vecs:    dense   smooth      PW
     Min         235      98     26                36277     9874    1408
     Max         236      99     27                36282     9883    1425
     Sum       11311    4741   1285              1741401   474235   68095
 


     bravais-lattice index     =            4
     lattice parameter (alat)  =      18.9275  a.u.
     unit-cell volume          =   10553.3021 (a.u.)^3
     number of atoms/cell      =           34
     number of atomic types    =            4
     number of electrons       =       156.00
     number of Kohn-Sham states=           94
     kinetic-energy cutoff     =      48.0000  Ry
     charge density cutoff     =     457.0000  Ry
     scf convergence threshold =      1.0E-07
     mixing beta               =       0.5000
     number of iterations used =            8  plain     mixing
     Exchange-correlation= SLA  PW   PBX  PBC
                           (   1   4   3   4   0   0   0)

     celldm(1)=  18.927497  celldm(2)=   0.000000  celldm(3)=   1.797125
     celldm(4)=   0.000000  celldm(5)=   0.000000  celldm(6)=   0.000000

     crystal axes: (cart. coord. in units of alat)
               a(1) = (   1.000000   0.000000   0.000000 )  
               a(2) = (  -0.500000   0.866025   0.000000 )  
               a(3) = (   0.000000   0.000000   1.797125 )  

     reciprocal axes: (cart. coord. in units 2 pi/alat)
               b(1) = (  1.000000  0.577350  0.000000 )  
               b(2) = (  0.000000  1.154701  0.000000 )  
               b(3) = (  0.000000  0.000000  0.556444 )  


     PseudoPot. # 1 for B  read from file:
     /home/sf05/q-e-qe-6.7MaX-Release/pseudo/B.pbe-n-kjpaw_psl.1.0.0.UPF
     MD5 check sum: d9c678ba5d3b2fd7b74e61139c9288d8
     Pseudo is Projector augmented-wave + core cor, Zval =  3.0
     Generated using "atomic" code by A. Dal Corso  v.5.1.2
     Shape of augmentation charge: PSQ
     Using radial grid of 1059 points,  4 beta functions with: 
                l(1) =   0
                l(2) =   0
                l(3) =   1
                l(4) =   1
     Q(r) pseudized with 0 coefficients 


     PseudoPot. # 2 for N  read from file:
     /home/sf05/q-e-qe-6.7MaX-Release/pseudo/N.pbe-n-kjpaw_psl.1.0.0.UPF
     MD5 check sum: e0e4e94a9c4025c5b51bd7d8793849bd
     Pseudo is Projector augmented-wave + core cor, Zval =  5.0
     Generated using "atomic" code by A. Dal Corso  v.5.1.2
     Shape of augmentation charge: PSQ
     Using radial grid of 1085 points,  4 beta functions with: 
                l(1) =   0
                l(2) =   0
                l(3) =   1
                l(4) =   1
     Q(r) pseudized with 0 coefficients 


     PseudoPot. # 3 for Cr read from file:
     /home/sf05/q-e-qe-6.7MaX-Release/pseudo/Cr.pbe-spn-kjpaw_psl.1.0.0.UPF
     MD5 check sum: 198f1a2427a48552563eee314eba32ba
     Pseudo is Projector augmented-wave + core cor, Zval = 14.0
     Generated using &quot;atomic&quot; code by A. Dal Corso  v.6.3
     Shape of augmentation charge: PSQ
     Using radial grid of 1183 points,  6 beta functions with: 
                l(1) =   0
                l(2) =   0
                l(3) =   1
                l(4) =   1
                l(5) =   2
                l(6) =   2
     Q(r) pseudized with 0 coefficients 


     PseudoPot. # 4 for Cr read from file:
     /home/sf05/q-e-qe-6.7MaX-Release/pseudo/Cr.pbe-spn-kjpaw_psl.1.0.0.UPF
     MD5 check sum: 198f1a2427a48552563eee314eba32ba
     Pseudo is Projector augmented-wave + core cor, Zval = 14.0
     Generated using &quot;atomic&quot; code by A. Dal Corso  v.6.3
     Shape of augmentation charge: PSQ
     Using radial grid of 1183 points,  6 beta functions with: 
                l(1) =   0
                l(2) =   0
                l(3) =   1
                l(4) =   1
                l(5) =   2
                l(6) =   2
     Q(r) pseudized with 0 coefficients 


     atomic species   valence    mass     pseudopotential
        B              3.00    10.81100     B ( 1.00)
        N              5.00    14.00674     N ( 1.00)
        Cr1           14.00    51.99610     Cr( 1.00)
        Cr2           14.00    51.99610     Cr( 1.00)

     Starting magnetic structure 
     atomic species   magnetization
        B            0.000
        N            0.000
        Cr1          1.000
        Cr2          1.000

     No symmetry found



   Cartesian axes

     site n.     atom                  positions (alat units)
         1           B   tau(   1) = (  -0.1250000   0.2165064   0.8985623  )
         2           B   tau(   2) = (   0.3750000   0.6495191   0.8985623  )
         3           B   tau(   3) = (   0.2500000   0.0000000   0.8985623  )
         4           B   tau(   4) = (   0.7500000   0.0000000   0.8985623  )
         5           B   tau(   5) = (   0.1250000   0.2165064   0.8985623  )
         6           B   tau(   6) = (  -0.3750000   0.6495191   0.8985623  )
         7           N   tau(   7) = (   0.7500005   0.2886748   0.8985623  )
         8           N   tau(   8) = (   0.3750005   0.5051812   0.8985623  )
         9           N   tau(   9) = (   0.3750005   0.0721685   0.8985623  )
        10           N   tau(  10) = (   0.6250005   0.0721685   0.8985623  )
        11           N   tau(  11) = (   0.2500005   0.2886748   0.8985623  )
        12           N   tau(  12) = (   0.6250005   0.5051812   0.8985623  )
        13           N   tau(  13) = (   0.0000005   0.2886748   0.8985623  )
        14           N   tau(  14) = (   0.2500005   0.7216875   0.8985623  )
        15           N   tau(  15) = (  -0.2499995   0.7216875   0.8985623  )
        16           B   tau(  16) = (   0.0000000   0.4330127   0.8985623  )
        17           B   tau(  17) = (   0.1250000   0.6495191   0.8985623  )
        18           B   tau(  18) = (  -0.1250000   0.6495191   0.8985623  )
        19           B   tau(  19) = (   0.3750000   0.2165064   0.8985623  )
        20           B   tau(  20) = (   0.6250000   0.2165064   0.8985623  )
        21           B   tau(  21) = (   0.5000000   0.4330127   0.8985623  )
        22           N   tau(  22) = (   0.5000005   0.2886748   0.8985623  )
        23           B   tau(  23) = (  -0.2500000   0.4330127   0.8985623  )
        24           B   tau(  24) = (   0.2500000   0.4330127   0.8985623  )
        25           B   tau(  25) = (   0.5000000   0.0000000   0.8985623  )
        26           N   tau(  26) = (  -0.1249995   0.5051812   0.8985623  )
        27           N   tau(  27) = (   0.1250005   0.5051812   0.8985623  )
        28           N   tau(  28) = (   0.0000005   0.7216875   0.8985623  )
        29           N   tau(  29) = (   0.5000005   0.7216875   0.8985623  )
        30           N   tau(  30) = (   0.1250005   0.0721685   0.8985623  )
        31           N   tau(  31) = (   0.8750005   0.0721685   0.8985623  )
        32           B   tau(  32) = (   0.0000000   0.0000000   0.8985623  )
        33           Cr1 tau(  33) = (   0.3905000   0.2598076   1.2040735  )
        34           Cr2 tau(  34) = (   0.1095000   0.2598076   1.2040735  )

     number of k points=    15  Gaussian smearing, width (Ry)=  0.0000
                       cart. coord. in units 2pi/alat
        k(    1) = (   0.1666667   0.2886751   0.0000000), wk =   0.0740741
        k(    2) = (   0.1666667  -0.4811252   0.0000000), wk =   0.0740741
        k(    3) = (   0.1666667  -0.0962250   0.0000000), wk =   0.0740741
        k(    4) = (  -0.5000000  -0.8660254   0.0000000), wk =   0.0370370
        k(    5) = (  -0.1666667   0.2886751   0.0000000), wk =   0.0740741
        k(    6) = (   0.3333333   0.0000000   0.0000000), wk =   0.0740741
        k(    7) = (  -0.1666667  -0.4811252   0.0000000), wk =   0.0740741
        k(    8) = (   0.5000000  -0.0962250   0.0000000), wk =   0.0740741
        k(    9) = (  -0.3333333  -0.3849002   0.0000000), wk =   0.0740741
        k(   10) = (   0.5000000   0.0962250   0.0000000), wk =   0.0740741
        k(   11) = (  -0.3333333   0.3849002   0.0000000), wk =   0.0740741
        k(   12) = (  -0.1666667  -0.0962250   0.0000000), wk =   0.0740741
        k(   13) = (  -0.0000000  -0.1924501   0.0000000), wk =   0.0740741
        k(   14) = (   0.5000000  -0.8660254   0.0000000), wk =   0.0370370
        k(   15) = (  -1.0000000   0.0000000   0.0000000), wk =   0.0370370

     Dense  grid:  1741401 G-vectors     FFT dimensions: ( 135, 135, 240)

     Smooth grid:   474235 G-vectors     FFT dimensions: (  90,  90, 160)

     Estimated max dynamical RAM per process >     218.62 MB

     Estimated total dynamical RAM >      10.25 GB
     Generating pointlists ...
     new r_m :   0.0595 (alat units)  1.1269 (a.u.) for type    1
     new r_m :   0.0595 (alat units)  1.1269 (a.u.) for type    2
     new r_m :   0.1159 (alat units)  2.1939 (a.u.) for type    3
     new r_m :   0.1159 (alat units)  2.1939 (a.u.) for type    4

     Initial potential from superposition of free atoms

     starting charge  155.99382, renormalised to  156.00000

     negative rho (up, down):  6.709E-03 4.655E-04
     Starting wfcs are  148 randomized atomic wfcs
     Checking if some PAW data can be deallocated... 

     total cpu time spent up to now is       20.3 secs

     Self-consistent Calculation

     iteration #  1     ecut=    48.00 Ry     beta= 0.50
     Davidson diagonalization with overlap
     ethr =  1.00E-02,  avg # of iterations =  2.8

     negative rho (up, down):  4.894E-03 2.908E-03

     total cpu time spent up to now is       60.3 secs

     total energy              =   -1130.72472152 Ry
     estimated scf accuracy    <      11.38776857 Ry

     total magnetization       =    12.00 Bohr mag/cell
     absolute magnetization    =    12.12 Bohr mag/cell

     iteration #  2     ecut=    48.00 Ry     beta= 0.50
     Davidson diagonalization with overlap
     ethr =  7.30E-03,  avg # of iterations =  2.8

     negative rho (up, down):  8.291E-03 7.353E-03

     total cpu time spent up to now is       97.6 secs

     total energy              =   -1133.02489314 Ry
     estimated scf accuracy    <       3.51773317 Ry

     total magnetization       =    10.00 Bohr mag/cell
     absolute magnetization    =    10.13 Bohr mag/cell

     iteration #  3     ecut=    48.00 Ry     beta= 0.50
     Davidson diagonalization with overlap
     ethr =  2.25E-03,  avg # of iterations =  6.7

     negative rho (up, down):  3.597E-03 3.475E-03

     total cpu time spent up to now is      134.8 secs

     total energy              =   -1133.58371941 Ry
     estimated scf accuracy    <       0.74511424 Ry

     total magnetization       =    11.78 Bohr mag/cell
     absolute magnetization    =    11.83 Bohr mag/cell

     iteration #  4     ecut=    48.00 Ry     beta= 0.50
     Davidson diagonalization with overlap
     ethr =  4.78E-04,  avg # of iterations =  6.7

     negative rho (up, down):  7.203E-03 7.962E-03

     total cpu time spent up to now is      171.4 secs

     total energy              =   -1133.77028246 Ry
     estimated scf accuracy    <       0.52365079 Ry

     total magnetization       =    10.00 Bohr mag/cell
     absolute magnetization    =    10.02 Bohr mag/cell

     iteration #  5     ecut=    48.00 Ry     beta= 0.50
     Davidson diagonalization with overlap
     ethr =  3.36E-04,  avg # of iterations =  6.6

     negative rho (up, down):  4.796E-03 4.545E-03

     total cpu time spent up to now is      209.5 secs

     total energy              =   -1133.81321662 Ry
     estimated scf accuracy    <       0.04993378 Ry

     total magnetization       =    10.00 Bohr mag/cell
     absolute magnetization    =    10.02 Bohr mag/cell

     iteration #  6     ecut=    48.00 Ry     beta= 0.50
     Davidson diagonalization with overlap
     ethr =  3.20E-05,  avg # of iterations =  9.5

     negative rho (up, down):  3.730E-03 4.009E-03

     total cpu time spent up to now is      253.5 secs

     total energy              =   -1133.82266990 Ry
     estimated scf accuracy    <       0.02441212 Ry

     total magnetization       =    10.00 Bohr mag/cell
     absolute magnetization    =    10.02 Bohr mag/cell

     iteration #  7     ecut=    48.00 Ry     beta= 0.50
     Davidson diagonalization with overlap
     ethr =  1.56E-05,  avg # of iterations =  6.3

     negative rho (up, down):  3.336E-03 3.775E-03

     total cpu time spent up to now is      288.9 secs

     total energy              =   -1133.82691300 Ry
     estimated scf accuracy    <       0.00342800 Ry

     total magnetization       =    10.00 Bohr mag/cell
     absolute magnetization    =    10.02 Bohr mag/cell

     iteration #  8     ecut=    48.00 Ry     beta= 0.50
     Davidson diagonalization with overlap
     ethr =  2.20E-06,  avg # of iterations =  8.2

     negative rho (up, down):  3.229E-03 3.752E-03

     total cpu time spent up to now is      329.8 secs

     total energy              =   -1133.82799533 Ry
     estimated scf accuracy    <       0.00041748 Ry

     total magnetization       =    10.00 Bohr mag/cell
     absolute magnetization    =    10.01 Bohr mag/cell

     iteration #  9     ecut=    48.00 Ry     beta= 0.50
     Davidson diagonalization with overlap
     ethr =  2.68E-07,  avg # of iterations =  3.6

     negative rho (up, down):  3.160E-03 3.741E-03

     total cpu time spent up to now is      363.1 secs

     total energy              =   -1133.82818637 Ry
     estimated scf accuracy    <       0.00007468 Ry

     total magnetization       =    10.00 Bohr mag/cell
     absolute magnetization    =    10.01 Bohr mag/cell

     iteration # 10     ecut=    48.00 Ry     beta= 0.50
     Davidson diagonalization with overlap
     ethr =  4.79E-08,  avg # of iterations =  5.6

     negative rho (up, down):  3.157E-03 3.763E-03

     total cpu time spent up to now is      403.6 secs

     total energy              =   -1133.82826113 Ry
     estimated scf accuracy    <       0.00002275 Ry

     total magnetization       =    10.00 Bohr mag/cell
     absolute magnetization    =    10.01 Bohr mag/cell

     iteration # 11     ecut=    48.00 Ry     beta= 0.50
     Davidson diagonalization with overlap
     ethr =  1.46E-08,  avg # of iterations =  4.4

     negative rho (up, down):  3.145E-03 3.775E-03

     total cpu time spent up to now is      437.2 secs

     total energy              =   -1133.82828577 Ry
     estimated scf accuracy    <       0.00000753 Ry

     total magnetization       =    10.00 Bohr mag/cell
     absolute magnetization    =    10.01 Bohr mag/cell

     iteration # 12     ecut=    48.00 Ry     beta= 0.50
     Davidson diagonalization with overlap
     ethr =  4.82E-09,  avg # of iterations =  4.6

     negative rho (up, down):  3.138E-03 3.784E-03

     total cpu time spent up to now is      469.7 secs

     total energy              =   -1133.82829261 Ry
     estimated scf accuracy    <       0.00000095 Ry

     total magnetization       =    10.00 Bohr mag/cell
     absolute magnetization    =    10.01 Bohr mag/cell

     iteration # 13     ecut=    48.00 Ry     beta= 0.50
     Davidson diagonalization with overlap
     ethr =  6.07E-10,  avg # of iterations =  4.8

     negative rho (up, down):  3.134E-03 3.788E-03

     total cpu time spent up to now is      504.5 secs

     total energy              =   -1133.82829499 Ry
     estimated scf accuracy    <       0.00000022 Ry

     total magnetization       =    10.00 Bohr mag/cell
     absolute magnetization    =    10.01 Bohr mag/cell

     iteration # 14     ecut=    48.00 Ry     beta= 0.50
     Davidson diagonalization with overlap
     ethr =  1.43E-10,  avg # of iterations =  4.9

     negative rho (up, down):  3.132E-03 3.789E-03
 
     Magnetic moment per site:
     atom:    1    charge:    0.8810    magn:    0.0007    constr:    0.0000
     atom:    2    charge:    0.8803    magn:    0.0002    constr:    0.0000
     atom:    3    charge:    0.8798    magn:    0.0004    constr:    0.0000
     atom:    4    charge:    0.8805    magn:    0.0001    constr:    0.0000
     atom:    5    charge:    0.8807    magn:    0.0005    constr:    0.0000
     atom:    6    charge:    0.8803    magn:    0.0001    constr:    0.0000
     atom:    7    charge:    2.8610    magn:    0.0002    constr:    0.0000
     atom:    8    charge:    2.8607    magn:    0.0018    constr:    0.0000
     atom:    9    charge:    2.8606    magn:    0.0047    constr:    0.0000
     atom:   10    charge:    2.8609    magn:    0.0007    constr:    0.0000
     atom:   11    charge:    2.8605    magn:    0.0080    constr:    0.0000
     atom:   12    charge:    2.8610    magn:    0.0003    constr:    0.0000
     atom:   13    charge:    2.8596    magn:    0.0052    constr:    0.0000
     atom:   14    charge:    2.8599    magn:    0.0002    constr:    0.0000
     atom:   15    charge:    2.8599    magn:    0.0000    constr:    0.0000
     atom:   16    charge:    0.8802    magn:    0.0004    constr:    0.0000
     atom:   17    charge:    0.8799    magn:    0.0002    constr:    0.0000
     atom:   18    charge:    0.8800    magn:    0.0001    constr:    0.0000
     atom:   19    charge:    0.8801    magn:    0.0005    constr:    0.0000
     atom:   20    charge:    0.8804    magn:    0.0007    constr:    0.0000
     atom:   21    charge:    0.8799    magn:    0.0004    constr:    0.0000
     atom:   22    charge:    2.8609    magn:    0.0052    constr:    0.0000
     atom:   23    charge:    0.8803    magn:    0.0002    constr:    0.0000
     atom:   24    charge:    0.8793    magn:    0.0003    constr:    0.0000
     atom:   25    charge:    0.8800    magn:    0.0003    constr:    0.0000
     atom:   26    charge:    2.8599    magn:    0.0003    constr:    0.0000
     atom:   27    charge:    2.8596    magn:    0.0018    constr:    0.0000
     atom:   28    charge:    2.8598    magn:    0.0002    constr:    0.0000
     atom:   29    charge:    2.8596    magn:    0.0002    constr:    0.0000
     atom:   30    charge:    2.8593    magn:    0.0047    constr:    0.0000
     atom:   31    charge:    2.8596    magn:    0.0007    constr:    0.0000
     atom:   32    charge:    0.8803    magn:    0.0003    constr:    0.0000
     atom:   33    charge:   12.4972    magn:    4.2227    constr:    0.0000
     atom:   34    charge:   12.4972    magn:    4.2228    constr:    0.0000

     total cpu time spent up to now is      539.8 secs

     End of self-consistent calculation

 ------ SPIN UP ------------


          k = 0.1667 0.2887 0.0000 ( 59267 PWs)   bands (ev):

   -72.8939 -72.8850 -44.4441 -44.3576 -44.2963 -44.2878 -44.2705 -44.2615
   -21.2462 -20.6613 -20.6535 -20.1090 -20.0900 -19.5883 -19.5800 -19.0984
   -18.6980 -18.6892 -18.4614 -18.4443 -18.1933 -18.0847 -18.0757 -17.8482
   -12.4840 -12.2091 -12.1972 -11.8209 -11.8157 -11.6571 -11.1920 -11.1874
   -10.3909 -10.3672 -10.1173 -10.1131  -9.5885  -9.5869  -8.8425  -8.8236
    -8.8190  -8.7671  -8.7583  -8.5952  -8.1958  -8.0512  -8.0174  -7.8298
    -7.8242  -7.4372  -7.4360  -7.2879  -7.2534  -7.2079  -7.2044  -6.9640
    -6.9491  -6.5643  -6.5398  -6.1529  -6.1512  -5.8712  -5.4171  -5.2931
    -5.2772  -5.1990  -4.9198  -4.8926  -4.5053  -4.3561  -4.3396  -3.9788
    -2.8902  -2.0648  -1.9919  -1.8597  -1.6685  -1.6099  -1.4961  -1.4811
    -1.4330  -1.3671  -1.3101  -0.7013   0.6505   0.9874   1.0508   1.1476
     1.2781   1.4649   1.4964   1.5880   1.6067   1.7722

          k = 0.1667-0.4811 0.0000 ( 59291 PWs)   bands (ev):

   -72.8939 -72.8850 -44.4441 -44.3576 -44.2963 -44.2878 -44.2706 -44.2615
   -21.1161 -20.9108 -20.7222 -20.1600 -19.8034 -19.4656 -19.3156 -19.1742
   -19.0129 -18.7784 -18.6406 -18.5420 -18.1478 -18.0872 -17.9211 -17.7224
   -12.3483 -12.1130 -12.0431 -11.9055 -11.6794 -11.6568 -11.5517 -10.9405
   -10.8899 -10.6236 -10.5216  -9.8594  -9.6925  -9.3349  -9.1098  -8.6697
    -8.6219  -8.5524  -8.3877  -8.3659  -8.1603  -8.1244  -8.0625  -8.0482
    -7.6876  -7.6221  -7.4934  -7.4725  -7.3570  -7.1700  -7.0662  -6.8611
    -6.6207  -6.3884  -6.1772  -6.1564  -5.9741  -5.9277  -5.7825  -5.7435
    -5.4501  -5.3981  -5.2103  -5.0398  -4.4440  -4.3460  -4.0895  -3.7663
    -2.8875  -2.0648  -1.9915  -1.8563  -1.6673  -1.6102  -1.4990  -1.4820
    -1.4341  -1.3667  -1.3099  -0.7051   0.5655   0.9770   1.0517   1.1179
     1.2058   1.2567   1.3581   1.8449   1.8993   2.1394

          k = 0.1667-0.0962 0.0000 ( 59226 PWs)   bands (ev):

   -72.8939 -72.8850 -44.4441 -44.3576 -44.2963 -44.2877 -44.2705 -44.2615
   -21.3125 -20.5354 -20.3445 -20.3379 -19.9866 -19.9807 -19.8042 -18.7274
   -18.7229 -18.3776 -18.3617 -18.3571 -18.2716 -18.2548 -18.0748 -18.0705
   -12.5095 -12.4992 -12.4068 -11.5800 -11.5761 -11.4302 -11.4142 -10.9252
   -10.9227  -9.9279  -9.9261  -9.6753  -9.3781  -9.3679  -9.2292  -9.2270
    -9.0407  -9.0393  -8.9239  -8.3221  -8.3207  -7.9024  -7.8962  -7.8827
    -7.8440  -7.7690  -7.6108  -7.5806  -7.1361  -7.0913  -6.9582  -6.8864
    -6.8845  -6.8501  -6.5292  -6.5276  -6.2561  -5.3505  -5.3177  -5.1421
    -5.0640  -4.8122  -4.7889  -4.7568  -4.6223  -4.5972  -4.3522  -4.3306
    -2.8930  -2.0649  -1.9923  -1.8630  -1.6709  -1.6096  -1.4936  -1.4803
    -1.4319  -1.3675  -1.3102  -0.6973   0.7451   0.9519   1.0145   1.1718
     1.2879   1.3279   1.5775   1.5877   1.6790   1.9209

          k =-0.5000-0.8660 0.0000 ( 59292 PWs)   bands (ev):

   -72.8939 -72.8850 -44.4441 -44.3577 -44.2963 -44.2878 -44.2705 -44.2615
   -21.0516 -21.0433 -20.4684 -20.4632 -19.4277 -19.4252 -19.4095 -19.4039
   -18.9932 -18.9854 -18.3284 -18.3244 -18.3167 -18.3017 -17.7910 -17.7881
   -12.0711 -12.0690 -12.0646 -12.0527 -11.8759 -11.8734 -11.3295 -11.3256
   -10.2335 -10.2326 -10.1349 -10.1299 -10.1283 -10.1250  -8.5904  -8.5508
    -8.5468  -8.5451  -8.5439  -8.5351  -7.8643  -7.8612  -7.8597  -7.8579
    -7.8206  -7.8179  -7.7814  -7.7527  -7.4915  -7.4821  -6.6092  -6.6079
    -6.3602  -6.3285  -6.3174  -6.2863  -6.1909  -6.1839  -5.7075  -5.7001
    -5.5465  -5.5382  -4.7256  -4.7165  -4.7066  -4.6852  -3.8856  -3.8680
    -2.8760  -2.0628  -1.9913  -1.8583  -1.6680  -1.6107  -1.4983  -1.4811
    -1.4409  -1.3711  -1.3107  -0.8242   0.7349   1.0600   1.0886   1.2080
     1.4591   1.5370   1.5715   1.6086   1.6285   1.7722

          k =-0.1667 0.2887 0.0000 ( 59267 PWs)   bands (ev):

   -72.8939 -72.8850 -44.4441 -44.3576 -44.2963 -44.2878 -44.2705 -44.2615
   -21.2462 -20.6613 -20.6534 -20.1090 -20.0900 -19.5884 -19.5800 -19.0984
   -18.6980 -18.6891 -18.4614 -18.4443 -18.1933 -18.0847 -18.0757 -17.8482
   -12.4840 -12.2091 -12.1972 -11.8209 -11.8157 -11.6571 -11.1920 -11.1873
   -10.3910 -10.3672 -10.1173 -10.1131  -9.5885  -9.5868  -8.8425  -8.8236
    -8.8190  -8.7672  -8.7583  -8.5951  -8.1959  -8.0512  -8.0174  -7.8298
    -7.8242  -7.4373  -7.4360  -7.2879  -7.2534  -7.2079  -7.2043  -6.9641
    -6.9492  -6.5643  -6.5398  -6.1529  -6.1512  -5.8712  -5.4172  -5.2931
    -5.2772  -5.1989  -4.9198  -4.8926  -4.5053  -4.3561  -4.3396  -3.9788
    -2.8902  -2.0648  -1.9919  -1.8597  -1.6685  -1.6099  -1.4961  -1.4811
    -1.4330  -1.3671  -1.3101  -0.7013   0.6505   0.9875   1.0508   1.1476
     1.2780   1.4649   1.4964   1.5880   1.6067   1.7722

          k = 0.3333 0.0000 0.0000 ( 59267 PWs)   bands (ev):

   -72.8939 -72.8850 -44.4441 -44.3577 -44.2963 -44.2877 -44.2705 -44.2615
   -21.2457 -20.6863 -20.6282 -20.1098 -20.0878 -19.6135 -19.5566 -19.1005
   -18.7145 -18.6675 -18.4647 -18.4429 -18.1892 -18.1074 -18.0595 -17.8473
   -12.4824 -12.2130 -12.1941 -11.8302 -11.8092 -11.6557 -11.2087 -11.1697
   -10.3911 -10.3658 -10.1321 -10.0998  -9.5948  -9.5790  -8.8428  -8.8269
    -8.8124  -8.7877  -8.7391  -8.5956  -8.1981  -8.1051  -7.9625  -7.8280
    -7.8236  -7.4448  -7.4287  -7.3007  -7.2345  -7.2168  -7.1947  -6.9668
    -6.9483  -6.6209  -6.4907  -6.1556  -6.1477  -5.8786  -5.4175  -5.3162
    -5.2419  -5.1991  -4.9296  -4.8854  -4.4969  -4.3890  -4.3201  -3.9773
    -2.8827  -2.0633  -1.9918  -1.8611  -1.6702  -1.6102  -1.4955  -1.4804
    -1.4365  -1.3701  -1.3105  -0.7841   0.7583   1.0614   1.2099   1.2484
     1.2649   1.4623   1.5144   1.5577   1.5950   1.7412

          k =-0.1667-0.4811 0.0000 ( 59291 PWs)   bands (ev):

   -72.8939 -72.8850 -44.4441 -44.3576 -44.2963 -44.2878 -44.2706 -44.2615
   -21.1161 -20.9108 -20.7222 -20.1600 -19.8034 -19.4656 -19.3156 -19.1742
   -19.0129 -18.7784 -18.6406 -18.5420 -18.1478 -18.0872 -17.9211 -17.7224
   -12.3483 -12.1130 -12.0431 -11.9055 -11.6794 -11.6568 -11.5517 -10.9405
   -10.8899 -10.6236 -10.5216  -9.8594  -9.6925  -9.3350  -9.1098  -8.6697
    -8.6219  -8.5524  -8.3876  -8.3659  -8.1602  -8.1244  -8.0625  -8.0483
    -7.6876  -7.6222  -7.4934  -7.4725  -7.3570  -7.1700  -7.0662  -6.8610
    -6.6208  -6.3884  -6.1772  -6.1564  -5.9741  -5.9277  -5.7825  -5.7435
    -5.4502  -5.3981  -5.2103  -5.0398  -4.4440  -4.3460  -4.0895  -3.7663
    -2.8875  -2.0648  -1.9915  -1.8563  -1.6673  -1.6102  -1.4990  -1.4820
    -1.4341  -1.3667  -1.3099  -0.7051   0.5655   0.9771   1.0517   1.1179
     1.2058   1.2567   1.3581   1.8449   1.8992   2.1393

          k = 0.5000-0.0962 0.0000 ( 59291 PWs)   bands (ev):

   -72.8939 -72.8850 -44.4441 -44.3577 -44.2963 -44.2878 -44.2705 -44.2615
   -21.1131 -20.9192 -20.7167 -20.1583 -19.8034 -19.4671 -19.3227 -19.1684
   -19.0142 -18.7787 -18.6300 -18.5488 -18.1362 -18.1042 -17.9174 -17.7221
   -12.3457 -12.1140 -12.0414 -11.9103 -11.6929 -11.6421 -11.5534 -10.9420
   -10.8864 -10.6209 -10.5248  -9.8576  -9.6928  -9.3358  -9.1093  -8.6584
    -8.6222  -8.5498  -8.4029  -8.3899  -8.1582  -8.1021  -8.0753  -8.0363
    -7.6834  -7.6227  -7.4924  -7.4739  -7.3509  -7.1708  -7.0674  -6.8593
    -6.6213  -6.3972  -6.1973  -6.1560  -5.9559  -5.9276  -5.7817  -5.7476
    -5.4511  -5.3984  -5.1845  -5.0558  -4.4199  -4.3783  -4.0842  -3.7659
    -2.8760  -2.0628  -1.9913  -1.8584  -1.6686  -1.6107  -1.4984  -1.4811
    -1.4408  -1.3711  -1.3107  -0.8239   0.7180   1.0477   1.1027   1.2142
     1.2879   1.3584   1.5017   1.7619   1.8436   1.8754

          k =-0.3333-0.3849 0.0000 ( 59291 PWs)   bands (ev):

   -72.8939 -72.8850 -44.4441 -44.3577 -44.2963 -44.2878 -44.2705 -44.2615
   -21.1141 -20.9162 -20.7187 -20.1581 -19.8054 -19.4654 -19.3173 -19.1718
   -19.0176 -18.7765 -18.6315 -18.5482 -18.1383 -18.1013 -17.9176 -17.7224
   -12.3475 -12.1105 -12.0444 -11.9078 -11.6810 -11.6555 -11.5530 -10.9416
   -10.8871 -10.6204 -10.5249  -9.8574  -9.6928  -9.3362  -9.1106  -8.6616
    -8.6212  -8.5518  -8.3896  -8.3876  -8.1596  -8.1107  -8.0625  -8.0508
    -7.6839  -7.6210  -7.4990  -7.4674  -7.3491  -7.1709  -7.0680  -6.8683
    -6.6196  -6.3896  -6.1794  -6.1583  -5.9686  -5.9259  -5.7817  -5.7584
    -5.4511  -5.3913  -5.1858  -5.0569  -4.4225  -4.3751  -4.0838  -3.7662
    -2.8799  -2.0635  -1.9913  -1.8576  -1.6677  -1.6105  -1.4987  -1.4814
    -1.4388  -1.3696  -1.3105  -0.7877   0.6680   1.0362   1.1123   1.2072
     1.2281   1.3268   1.3770   1.8251   1.8955   1.9278

          k = 0.5000 0.0962 0.0000 ( 59291 PWs)   bands (ev):

   -72.8939 -72.8850 -44.4441 -44.3577 -44.2963 -44.2878 -44.2705 -44.2615
   -21.1131 -20.9192 -20.7167 -20.1583 -19.8034 -19.4671 -19.3227 -19.1684
   -19.0142 -18.7787 -18.6300 -18.5488 -18.1362 -18.1042 -17.9174 -17.7221
   -12.3457 -12.1140 -12.0413 -11.9103 -11.6928 -11.6421 -11.5534 -10.9420
   -10.8864 -10.6209 -10.5248  -9.8576  -9.6928  -9.3357  -9.1093  -8.6584
    -8.6222  -8.5499  -8.4029  -8.3899  -8.1583  -8.1021  -8.0752  -8.0362
    -7.6834  -7.6227  -7.4925  -7.4739  -7.3509  -7.1709  -7.0674  -6.8593
    -6.6213  -6.3972  -6.1973  -6.1559  -5.9559  -5.9276  -5.7818  -5.7477
    -5.4512  -5.3984  -5.1845  -5.0557  -4.4199  -4.3783  -4.0842  -3.7659
    -2.8760  -2.0628  -1.9913  -1.8584  -1.6686  -1.6107  -1.4984  -1.4811
    -1.4408  -1.3711  -1.3107  -0.8239   0.7180   1.0477   1.1027   1.2142
     1.2879   1.3584   1.5017   1.7619   1.8435   1.8753

          k =-0.3333 0.3849 0.0000 ( 59291 PWs)   bands (ev):

   -72.8939 -72.8850 -44.4441 -44.3577 -44.2963 -44.2878 -44.2705 -44.2615
   -21.1141 -20.9162 -20.7187 -20.1581 -19.8054 -19.4654 -19.3173 -19.1718
   -19.0176 -18.7765 -18.6314 -18.5482 -18.1383 -18.1013 -17.9176 -17.7224
   -12.3475 -12.1105 -12.0445 -11.9078 -11.6810 -11.6555 -11.5530 -10.9416
   -10.8870 -10.6204 -10.5249  -9.8574  -9.6928  -9.3362  -9.1106  -8.6616
    -8.6212  -8.5517  -8.3897  -8.3876  -8.1597  -8.1107  -8.0625  -8.0507
    -7.6839  -7.6210  -7.4990  -7.4674  -7.3491  -7.1708  -7.0681  -6.8683
    -6.6196  -6.3896  -6.1794  -6.1584  -5.9686  -5.9260  -5.7816  -5.7584
    -5.4510  -5.3913  -5.1859  -5.0569  -4.4225  -4.3751  -4.0838  -3.7662
    -2.8799  -2.0635  -1.9913  -1.8576  -1.6677  -1.6105  -1.4987  -1.4814
    -1.4388  -1.3696  -1.3105  -0.7877   0.6680   1.0362   1.1123   1.2072
     1.2282   1.3268   1.3770   1.8249   1.8956   1.9279

          k =-0.1667-0.0962 0.0000 ( 59226 PWs)   bands (ev):

   -72.8939 -72.8850 -44.4441 -44.3576 -44.2963 -44.2877 -44.2705 -44.2615
   -21.3125 -20.5354 -20.3445 -20.3379 -19.9866 -19.9807 -19.8042 -18.7274
   -18.7229 -18.3776 -18.3617 -18.3571 -18.2716 -18.2548 -18.0748 -18.0705
   -12.5095 -12.4993 -12.4068 -11.5800 -11.5761 -11.4302 -11.4143 -10.9252
   -10.9227  -9.9279  -9.9261  -9.6752  -9.3780  -9.3679  -9.2292  -9.2270
    -9.0407  -9.0393  -8.9239  -8.3221  -8.3207  -7.9024  -7.8962  -7.8827
    -7.8439  -7.7690  -7.6108  -7.5806  -7.1361  -7.0913  -6.9583  -6.8865
    -6.8845  -6.8501  -6.5292  -6.5276  -6.2562  -5.3505  -5.3177  -5.1420
    -5.0641  -4.8122  -4.7889  -4.7568  -4.6223  -4.5972  -4.3522  -4.3306
    -2.8930  -2.0649  -1.9923  -1.8630  -1.6709  -1.6096  -1.4936  -1.4803
    -1.4319  -1.3675  -1.3102  -0.6973   0.7451   0.9519   1.0145   1.1717
     1.2879   1.3279   1.5776   1.5877   1.6789   1.9209

          k =-0.0000-0.1925 0.0000 ( 59226 PWs)   bands (ev):

   -72.8939 -72.8850 -44.4441 -44.3576 -44.2963 -44.2877 -44.2705 -44.2615
   -21.3127 -20.5298 -20.3583 -20.3336 -19.9888 -19.9703 -19.8083 -18.7334
   -18.7124 -18.4059 -18.3597 -18.3498 -18.2533 -18.2526 -18.0848 -18.0664
   -12.5139 -12.4958 -12.4059 -11.5856 -11.5705 -11.4309 -11.4120 -10.9273
   -10.9220  -9.9320  -9.9228  -9.6750  -9.3763  -9.3669  -9.2311  -9.2267
    -9.0405  -9.0402  -8.9245  -8.3246  -8.3178  -7.9023  -7.8957  -7.8625
    -7.8416  -7.7710  -7.6393  -7.5892  -7.1144  -7.0836  -6.9568  -6.8908
    -6.8819  -6.8637  -6.5327  -6.5231  -6.2569  -5.3465  -5.3108  -5.1421
    -5.0639  -4.8585  -4.7899  -4.7479  -4.5928  -4.5878  -4.3622  -4.3314
    -2.8967  -2.0656  -1.9924  -1.8623  -1.6700  -1.6094  -1.4939  -1.4808
    -1.4303  -1.3660  -1.3099  -0.6491   0.6743   0.8652   1.0078   1.1466
     1.2197   1.4002   1.5567   1.5880   1.7083   1.9585

          k = 0.5000-0.8660 0.0000 ( 59292 PWs)   bands (ev):

   -72.8939 -72.8850 -44.4441 -44.3577 -44.2963 -44.2878 -44.2705 -44.2615
   -21.0517 -21.0433 -20.4684 -20.4632 -19.4276 -19.4252 -19.4095 -19.4039
   -18.9933 -18.9853 -18.3284 -18.3244 -18.3168 -18.3016 -17.7910 -17.7881
   -12.0712 -12.0690 -12.0647 -12.0526 -11.8759 -11.8733 -11.3295 -11.3255
   -10.2335 -10.2327 -10.1349 -10.1299 -10.1283 -10.1250  -8.5904  -8.5508
    -8.5469  -8.5452  -8.5438  -8.5350  -7.8642  -7.8613  -7.8597  -7.8578
    -7.8206  -7.8180  -7.7814  -7.7527  -7.4916  -7.4821  -6.6091  -6.6079
    -6.3602  -6.3285  -6.3174  -6.2863  -6.1909  -6.1838  -5.7075  -5.7001
    -5.5466  -5.5383  -4.7256  -4.7165  -4.7065  -4.6853  -3.8856  -3.8680
    -2.8760  -2.0628  -1.9913  -1.8583  -1.6680  -1.6107  -1.4983  -1.4811
    -1.4409  -1.3711  -1.3107  -0.8242   0.7349   1.0600   1.0886   1.2080
     1.4591   1.5370   1.5715   1.6085   1.6284   1.7722

          k =-1.0000 0.0000 0.0000 ( 59292 PWs)   bands (ev):

   -72.8939 -72.8850 -44.4441 -44.3577 -44.2963 -44.2878 -44.2705 -44.2615
   -21.0751 -21.0168 -20.4798 -20.4567 -19.4436 -19.4073 -19.4063 -19.4022
   -19.0145 -18.9670 -18.3795 -18.3135 -18.3020 -18.2760 -17.8003 -17.7812
   -12.1148 -12.0668 -12.0434 -12.0298 -11.8836 -11.8652 -11.3493 -11.3064
   -10.2525 -10.2315 -10.1324 -10.1292 -10.1231 -10.1186  -8.6345  -8.5787
    -8.5491  -8.5310  -8.5129  -8.4884  -7.8812  -7.8714  -7.8603  -7.8495
    -7.8149  -7.8106  -7.7949  -7.7551  -7.5136  -7.4627  -6.6135  -6.5999
    -6.3755  -6.3216  -6.2941  -6.2788  -6.2080  -6.1694  -5.7465  -5.6701
    -5.5661  -5.5193  -4.8151  -4.7224  -4.6622  -4.6365  -3.8939  -3.8629
    -2.8912  -2.0654  -1.9917  -1.8556  -1.6670  -1.6101  -1.4991  -1.4821
    -1.4314  -1.3653  -1.3095  -0.6576   0.5249   0.8607   1.0447   1.0954
     1.2223   1.4345   1.5748   1.6211   1.6392   1.9320

 ------ SPIN DOWN ----------


          k = 0.1667 0.2887 0.0000 ( 59267 PWs)   bands (ev):

   -68.6976 -68.6874 -40.3748 -40.2730 -40.1213 -40.1111 -40.0711 -40.0602
   -21.2420 -20.6583 -20.6483 -20.1046 -20.0862 -19.5856 -19.5746 -19.0942
   -18.6946 -18.6834 -18.4570 -18.4403 -18.1885 -18.0814 -18.0712 -17.8438
   -12.4810 -12.2059 -12.1946 -11.8184 -11.8131 -11.6548 -11.1897 -11.1837
   -10.3879 -10.3640 -10.1150 -10.1093  -9.5859  -9.5836  -8.8282  -8.8157
    -8.8134  -8.7653  -8.7550  -8.5925  -8.1934  -8.0250  -8.0075  -7.8271
    -7.8218  -7.4342  -7.4321  -7.2676  -7.2389  -7.2059  -7.2012  -6.9613
    -6.9468  -6.5412  -6.5315  -6.1502  -6.1484  -5.8544  -5.4140  -5.2733
    -5.2608  -5.1961  -4.9041  -4.8795  -4.4883  -4.3414  -4.3282  -3.9643
    -1.4451   0.3911   0.9110   1.0453   1.0742   1.1772   1.2334   1.3378
     1.3750   1.4946   1.5081   1.5735   1.6452   1.6970   1.8549   2.0119
     2.0376   2.1187   2.1365   2.1946   2.2504   2.3047

          k = 0.1667-0.4811 0.0000 ( 59291 PWs)   bands (ev):

   -68.6976 -68.6874 -40.3748 -40.2730 -40.1213 -40.1111 -40.0711 -40.0602
   -21.1116 -20.9074 -20.7179 -20.1557 -19.7994 -19.4615 -19.3117 -19.1697
   -19.0089 -18.7743 -18.6349 -18.5387 -18.1420 -18.0848 -17.9165 -17.7179
   -12.3452 -12.1100 -12.0407 -11.9029 -11.6776 -11.6537 -11.5490 -10.9376
   -10.8864 -10.6200 -10.5190  -9.8560  -9.6897  -9.3318  -9.1071  -8.6445
    -8.6192  -8.5490  -8.3853  -8.3536  -8.1576  -8.1058  -8.0602  -8.0454
    -7.6846  -7.6195  -7.4908  -7.4700  -7.3381  -7.1667  -7.0637  -6.8441
    -6.6174  -6.3724  -6.1601  -6.1538  -5.9573  -5.9244  -5.7797  -5.7281
    -5.4474  -5.3826  -5.1871  -5.0302  -4.4233  -4.3388  -4.0746  -3.7523
    -1.4359   0.3800   0.8852   0.9963   1.0694   1.1394   1.1700   1.2257
     1.2842   1.4524   1.5251   1.7419   1.7655   1.8021   1.8828   2.0887
     2.1206   2.1372   2.1723   2.2051   2.2759   2.2982

          k = 0.1667-0.0962 0.0000 ( 59226 PWs)   bands (ev):

   -68.6976 -68.6874 -40.3748 -40.2730 -40.1214 -40.1111 -40.0711 -40.0602
   -21.3084 -20.5308 -20.3406 -20.3344 -19.9817 -19.9768 -19.8006 -18.7224
   -18.7186 -18.3730 -18.3579 -18.3528 -18.2670 -18.2501 -18.0706 -18.0670
   -12.5064 -12.4965 -12.4040 -11.5771 -11.5737 -11.4271 -11.4118 -10.9220
   -10.9201  -9.9248  -9.9233  -9.6719  -9.3749  -9.3651  -9.2257  -9.2240
    -9.0380  -9.0365  -8.9043  -8.3185  -8.3175  -7.8991  -7.8936  -7.8594
    -7.8398  -7.7666  -7.5926  -7.5701  -7.1092  -7.0803  -6.9555  -6.8837
    -6.8822  -6.8391  -6.5263  -6.5252  -6.2535  -5.3261  -5.3051  -5.1391
    -5.0611  -4.7953  -4.7731  -4.7415  -4.6067  -4.5840  -4.3350  -4.3210
    -1.4542   0.4049   0.9338   1.0096   1.0613   1.1101   1.1828   1.3382
     1.4168   1.5137   1.5870   1.6408   1.7449   1.8408   1.8877   1.9237
     2.0198   2.0433   2.1218   2.1796   2.2212   2.3028

          k =-0.5000-0.8660 0.0000 ( 59292 PWs)   bands (ev):

   -68.6976 -68.6874 -40.3748 -40.2730 -40.1214 -40.1111 -40.0711 -40.0602
   -21.0488 -21.0377 -20.4643 -20.4595 -19.4230 -19.4205 -19.4050 -19.4006
   -18.9907 -18.9798 -18.3243 -18.3193 -18.3157 -18.2945 -17.7865 -17.7841
   -12.0685 -12.0654 -12.0632 -12.0487 -11.8732 -11.8712 -11.3273 -11.3218
   -10.2304 -10.2298 -10.1312 -10.1271 -10.1250 -10.1224  -8.5602  -8.5460
    -8.5440  -8.5407  -8.5378  -8.5312  -7.8611  -7.8583  -7.8572  -7.8553
    -7.8165  -7.8145  -7.7631  -7.7416  -7.4899  -7.4788  -6.6058  -6.6055
    -6.3308  -6.3092  -6.3025  -6.2772  -6.1886  -6.1802  -5.6932  -5.6856
    -5.5448  -5.5344  -4.7079  -4.7018  -4.6823  -4.6807  -3.8684  -3.8576
    -1.4127   0.1456   0.9487   0.9864   1.0406   1.1906   1.2171   1.3585
     1.4701   1.5167   1.5854   1.7027   1.7452   1.8701   1.9148   1.9251
     1.9924   2.0688   2.1979   2.2388   2.2918   2.3312

          k =-0.1667 0.2887 0.0000 ( 59267 PWs)   bands (ev):

   -68.6976 -68.6874 -40.3748 -40.2730 -40.1213 -40.1111 -40.0711 -40.0602
   -21.2420 -20.6584 -20.6482 -20.1046 -20.0862 -19.5857 -19.5746 -19.0942
   -18.6947 -18.6833 -18.4570 -18.4403 -18.1885 -18.0814 -18.0712 -17.8438
   -12.4810 -12.2059 -12.1946 -11.8184 -11.8131 -11.6548 -11.1898 -11.1836
   -10.3879 -10.3640 -10.1150 -10.1093  -9.5860  -9.5836  -8.8282  -8.8156
    -8.8134  -8.7654  -8.7550  -8.5925  -8.1934  -8.0250  -8.0075  -7.8271
    -7.8217  -7.4342  -7.4321  -7.2676  -7.2389  -7.2059  -7.2012  -6.9613
    -6.9468  -6.5412  -6.5315  -6.1503  -6.1484  -5.8544  -5.4141  -5.2733
    -5.2608  -5.1960  -4.9041  -4.8795  -4.4884  -4.3414  -4.3282  -3.9643
    -1.4451   0.3912   0.9110   1.0453   1.0742   1.1772   1.2334   1.3378
     1.3750   1.4946   1.5081   1.5734   1.6452   1.6970   1.8549   2.0119
     2.0376   2.1187   2.1365   2.1946   2.2503   2.3047

          k = 0.3333 0.0000 0.0000 ( 59267 PWs)   bands (ev):

   -68.6976 -68.6874 -40.3748 -40.2730 -40.1214 -40.1111 -40.0711 -40.0602
   -21.2416 -20.6802 -20.6263 -20.1052 -20.0844 -19.6073 -19.5545 -19.0960
   -18.7081 -18.6656 -18.4599 -18.4390 -18.1852 -18.1004 -18.0574 -17.8431
   -12.4798 -12.2088 -12.1922 -11.8268 -11.8071 -11.6535 -11.2049 -11.1679
   -10.3878 -10.3631 -10.1272 -10.0982  -9.5913  -9.5770  -8.8283  -8.8201
    -8.8066  -8.7838  -8.7378  -8.5930  -8.1951  -8.0735  -7.9585  -7.8255
    -7.8212  -7.4401  -7.4264  -7.2765  -7.2257  -7.2136  -7.1930  -6.9635
    -6.9461  -6.5918  -6.4862  -6.1526  -6.1454  -5.8595  -5.4141  -5.2926
    -5.2329  -5.1963  -4.9119  -4.8738  -4.4819  -4.3682  -4.3107  -3.9635
    -1.4302   0.2253   0.9452   1.0442   1.0818   1.1483   1.2027   1.3850
     1.4813   1.5101   1.5379   1.6122   1.7681   1.8546   1.8922   1.9278
     2.0324   2.0528   2.1414   2.1913   2.2566   2.3941

          k =-0.1667-0.4811 0.0000 ( 59291 PWs)   bands (ev):

   -68.6976 -68.6874 -40.3748 -40.2730 -40.1213 -40.1111 -40.0711 -40.0602
   -21.1116 -20.9074 -20.7179 -20.1557 -19.7994 -19.4615 -19.3117 -19.1697
   -19.0089 -18.7743 -18.6349 -18.5387 -18.1420 -18.0848 -17.9165 -17.7179
   -12.3452 -12.1100 -12.0407 -11.9029 -11.6776 -11.6537 -11.5490 -10.9376
   -10.8865 -10.6200 -10.5190  -9.8560  -9.6897  -9.3318  -9.1071  -8.6445
    -8.6191  -8.5490  -8.3852  -8.3536  -8.1575  -8.1058  -8.0602  -8.0455
    -7.6846  -7.6196  -7.4907  -7.4700  -7.3381  -7.1666  -7.0637  -6.8441
    -6.6174  -6.3724  -6.1601  -6.1538  -5.9573  -5.9244  -5.7796  -5.7281
    -5.4475  -5.3826  -5.1871  -5.0302  -4.4233  -4.3388  -4.0746  -3.7523
    -1.4359   0.3800   0.8852   0.9963   1.0694   1.1394   1.1700   1.2257
     1.2842   1.4524   1.5251   1.7419   1.7655   1.8021   1.8828   2.0887
     2.1206   2.1372   2.1723   2.2051   2.2759   2.2982

          k = 0.5000-0.0962 0.0000 ( 59291 PWs)   bands (ev):

   -68.6976 -68.6874 -40.3748 -40.2730 -40.1213 -40.1111 -40.0711 -40.0602
   -21.1090 -20.9145 -20.7132 -20.1543 -19.7994 -19.4627 -19.3177 -19.1649
   -19.0099 -18.7744 -18.6263 -18.5443 -18.1324 -18.0987 -17.9135 -17.7178
   -12.3431 -12.1108 -12.0390 -11.9070 -11.6893 -11.6405 -11.5506 -10.9388
   -10.8836 -10.6178 -10.5217  -9.8543  -9.6900  -9.3325  -9.1066  -8.6368
    -8.6192  -8.5470  -8.3904  -8.3765  -8.1558  -8.0904  -8.0717  -8.0348
    -7.6810  -7.6201  -7.4899  -7.4713  -7.3338  -7.1675  -7.0647  -6.8431
    -6.6179  -6.3778  -6.1748  -6.1534  -5.9450  -5.9242  -5.7789  -5.7306
    -5.4483  -5.3829  -5.1688  -5.0415  -4.4047  -4.3628  -4.0709  -3.7522
    -1.4127   0.1474   0.9340   0.9799   1.0483   1.1522   1.2033   1.2272
     1.3310   1.5955   1.7104   1.7355   1.8196   1.8972   1.9580   1.9898
     2.0608   2.1462   2.2108   2.2589   2.2750   2.3174

          k =-0.3333-0.3849 0.0000 ( 59291 PWs)   bands (ev):

   -68.6976 -68.6874 -40.3748 -40.2730 -40.1213 -40.1111 -40.0711 -40.0602
   -21.1099 -20.9120 -20.7150 -20.1541 -19.8010 -19.4614 -19.3131 -19.1677
   -19.0128 -18.7726 -18.6273 -18.5439 -18.1341 -18.0965 -17.9136 -17.7179
   -12.3445 -12.1080 -12.0417 -11.9050 -11.6789 -11.6524 -11.5500 -10.9384
   -10.8841 -10.6174 -10.5219  -9.8543  -9.6900  -9.3328  -9.1076  -8.6388
    -8.6185  -8.5485  -8.3866  -8.3689  -8.1571  -8.0964  -8.0604  -8.0475
    -7.6815  -7.6185  -7.4957  -7.4656  -7.3327  -7.1676  -7.0652  -6.8491
    -6.6162  -6.3729  -6.1624  -6.1550  -5.9535  -5.9229  -5.7790  -5.7384
    -5.4483  -5.3782  -5.1699  -5.0418  -4.4070  -4.3601  -4.0707  -3.7524
    -1.4207   0.2129   0.9206   0.9790   1.0428   1.1711   1.2117   1.2459
     1.2892   1.5021   1.6852   1.7565   1.8352   1.8652   1.9565   2.0234
     2.0611   2.0988   2.1519   2.2316   2.2763   2.3221

          k = 0.5000 0.0962 0.0000 ( 59291 PWs)   bands (ev):

   -68.6976 -68.6874 -40.3748 -40.2730 -40.1213 -40.1111 -40.0711 -40.0602
   -21.1090 -20.9145 -20.7132 -20.1543 -19.7994 -19.4627 -19.3177 -19.1649
   -19.0099 -18.7744 -18.6263 -18.5443 -18.1324 -18.0987 -17.9135 -17.7178
   -12.3431 -12.1108 -12.0390 -11.9070 -11.6893 -11.6405 -11.5506 -10.9388
   -10.8836 -10.6178 -10.5217  -9.8543  -9.6900  -9.3325  -9.1066  -8.6368
    -8.6192  -8.5470  -8.3903  -8.3765  -8.1558  -8.0904  -8.0716  -8.0348
    -7.6810  -7.6200  -7.4899  -7.4713  -7.3337  -7.1676  -7.0646  -6.8431
    -6.6178  -6.3778  -6.1748  -6.1533  -5.9450  -5.9242  -5.7790  -5.7306
    -5.4484  -5.3829  -5.1688  -5.0415  -4.4047  -4.3628  -4.0709  -3.7522
    -1.4127   0.1474   0.9340   0.9799   1.0483   1.1522   1.2033   1.2272
     1.3309   1.5955   1.7104   1.7355   1.8196   1.8972   1.9580   1.9898
     2.0608   2.1462   2.2109   2.2589   2.2750   2.3174

          k =-0.3333 0.3849 0.0000 ( 59291 PWs)   bands (ev):

   -68.6976 -68.6874 -40.3748 -40.2730 -40.1213 -40.1111 -40.0711 -40.0602
   -21.1099 -20.9120 -20.7150 -20.1541 -19.8010 -19.4614 -19.3131 -19.1677
   -19.0128 -18.7726 -18.6273 -18.5439 -18.1341 -18.0965 -17.9136 -17.7179
   -12.3445 -12.1080 -12.0417 -11.9050 -11.6789 -11.6524 -11.5500 -10.9385
   -10.8840 -10.6174 -10.5219  -9.8543  -9.6900  -9.3328  -9.1076  -8.6388
    -8.6186  -8.5484  -8.3867  -8.3689  -8.1571  -8.0964  -8.0604  -8.0474
    -7.6814  -7.6185  -7.4957  -7.4656  -7.3327  -7.1675  -7.0652  -6.8491
    -6.6163  -6.3729  -6.1624  -6.1551  -5.9535  -5.9230  -5.7789  -5.7384
    -5.4482  -5.3782  -5.1699  -5.0418  -4.4071  -4.3601  -4.0707  -3.7524
    -1.4207   0.2129   0.9205   0.9790   1.0427   1.1711   1.2117   1.2459
     1.2892   1.5021   1.6852   1.7565   1.8352   1.8651   1.9566   2.0234
     2.0610   2.0988   2.1519   2.2310   2.2765   2.3217

          k =-0.1667-0.0962 0.0000 ( 59226 PWs)   bands (ev):

   -68.6976 -68.6874 -40.3748 -40.2730 -40.1214 -40.1111 -40.0711 -40.0602
   -21.3084 -20.5308 -20.3406 -20.3344 -19.9817 -19.9768 -19.8006 -18.7224
   -18.7186 -18.3730 -18.3579 -18.3528 -18.2670 -18.2501 -18.0706 -18.0670
   -12.5064 -12.4965 -12.4040 -11.5771 -11.5737 -11.4271 -11.4118 -10.9220
   -10.9201  -9.9248  -9.9233  -9.6719  -9.3749  -9.3651  -9.2257  -9.2240
    -9.0380  -9.0365  -8.9043  -8.3186  -8.3176  -7.8991  -7.8936  -7.8594
    -7.8398  -7.7666  -7.5926  -7.5701  -7.1092  -7.0803  -6.9556  -6.8837
    -6.8822  -6.8391  -6.5263  -6.5251  -6.2536  -5.3261  -5.3051  -5.1390
    -5.0612  -4.7953  -4.7731  -4.7415  -4.6066  -4.5839  -4.3350  -4.3210
    -1.4542   0.4049   0.9338   1.0096   1.0613   1.1101   1.1828   1.3382
     1.4168   1.5137   1.5870   1.6409   1.7449   1.8408   1.8876   1.9237
     2.0198   2.0433   2.1216   2.1797   2.2212   2.3028

          k =-0.0000-0.1925 0.0000 ( 59226 PWs)   bands (ev):

   -68.6976 -68.6874 -40.3748 -40.2729 -40.1214 -40.1111 -40.0711 -40.0602
   -21.3085 -20.5260 -20.3534 -20.3296 -19.9848 -19.9669 -19.8041 -18.7287
   -18.7086 -18.3983 -18.3556 -18.3456 -18.2508 -18.2495 -18.0802 -18.0622
   -12.5097 -12.4939 -12.4034 -11.5829 -11.5683 -11.4272 -11.4101 -10.9243
   -10.9191  -9.9288  -9.9199  -9.6718  -9.3736  -9.3643  -9.2275  -9.2234
    -9.0376  -9.0375  -8.9047  -8.3212  -8.3144  -7.8996  -7.8933  -7.8471
    -7.8355  -7.7682  -7.6145  -7.5739  -7.0988  -7.0702  -6.9542  -6.8879
    -6.8794  -6.8488  -6.5300  -6.5206  -6.2541  -5.3277  -5.2957  -5.1392
    -5.0610  -4.8318  -4.7718  -4.7334  -4.5864  -4.5771  -4.3460  -4.3176
    -1.4612   0.5280   0.9092   1.0083   1.0381   1.1407   1.1856   1.2803
     1.3660   1.4963   1.5211   1.5686   1.7510   1.8254   1.8534   1.9841
     2.0273   2.0603   2.0941   2.1666   2.2302   2.2741

          k = 0.5000-0.8660 0.0000 ( 59292 PWs)   bands (ev):

   -68.6976 -68.6874 -40.3748 -40.2730 -40.1214 -40.1111 -40.0711 -40.0602
   -21.0488 -21.0377 -20.4643 -20.4595 -19.4230 -19.4205 -19.4050 -19.4005
   -18.9908 -18.9797 -18.3243 -18.3193 -18.3158 -18.2944 -17.7865 -17.7841
   -12.0685 -12.0654 -12.0633 -12.0486 -11.8732 -11.8712 -11.3273 -11.3217
   -10.2305 -10.2299 -10.1313 -10.1271 -10.1250 -10.1224  -8.5602  -8.5460
    -8.5441  -8.5406  -8.5378  -8.5310  -7.8611  -7.8583  -7.8572  -7.8552
    -7.8165  -7.8145  -7.7631  -7.7416  -7.4900  -7.4788  -6.6057  -6.6054
    -6.3307  -6.3092  -6.3025  -6.2772  -6.1886  -6.1800  -5.6932  -5.6856
    -5.5449  -5.5345  -4.7079  -4.7018  -4.6824  -4.6806  -3.8684  -3.8576
    -1.4127   0.1456   0.9487   0.9864   1.0406   1.1906   1.2171   1.3585
     1.4701   1.5167   1.5853   1.7027   1.7453   1.8701   1.9148   1.9251
     1.9924   2.0688   2.1978   2.2388   2.2918   2.3311

          k =-1.0000 0.0000 0.0000 ( 59292 PWs)   bands (ev):

   -68.6976 -68.6874 -40.3749 -40.2730 -40.1214 -40.1111 -40.0711 -40.0602
   -21.0691 -21.0148 -20.4751 -20.4529 -19.4384 -19.4033 -19.4027 -19.3987
   -19.0080 -18.9650 -18.3706 -18.3078 -18.2996 -18.2755 -17.7955 -17.7769
   -12.1079 -12.0644 -12.0419 -12.0290 -11.8810 -11.8633 -11.3451 -11.3048
   -10.2476 -10.2278 -10.1297 -10.1268 -10.1202 -10.1163  -8.6015  -8.5741
    -8.5461  -8.5289  -8.5122  -8.4844  -7.8769  -7.8679  -7.8570  -7.8470
    -7.8084  -7.8083  -7.7767  -7.7406  -7.5096  -7.4616  -6.6107  -6.5976
    -6.3497  -6.3002  -6.2835  -6.2707  -6.2035  -6.1674  -5.7231  -5.6614
    -5.5616  -5.5180  -4.7844  -4.6988  -4.6567  -4.6351  -3.8786  -3.8495
    -1.4433   0.4962   0.8729   1.0301   1.0601   1.1662   1.2170   1.2678
     1.2771   1.3175   1.6085   1.6365   1.6780   1.7655   1.7743   1.8886
     2.0968   2.1506   2.1533   2.2136   2.2934   2.3215

     the Fermi energy is    -1.1350 ev

!    total energy              =   -1133.82829569 Ry

     total all-electron energy =     -6753.503999 Ry
     estimated scf accuracy    <       0.00000009 Ry
     smearing contrib. (-TS)   =      -0.00000000 Ry
     internal energy E=F+TS    =   -1133.82829569 Ry

     The total energy is F=E-TS. E is the sum of the following terms:
     one-electron contribution =   -3953.87725399 Ry
     hartree contribution      =    2005.12206225 Ry
     xc contribution           =    -186.02254935 Ry
     ewald contribution        =    1360.32571841 Ry
     DFT-D3 Dispersion         =      -0.13319320 Ry
     one-center paw contrib.   =    -359.24307981 Ry

     total magnetization       =    10.00 Bohr mag/cell
     absolute magnetization    =    10.01 Bohr mag/cell

     convergence has been achieved in  14 iterations

     Writing output data file ./mytmp/Crdimer0.1405-0.3.save/
 
     init_run     :     18.79s CPU     19.97s WALL (       1 calls)
     electrons    :    485.67s CPU    519.63s WALL (       1 calls)

     Called by init_run:
     wfcinit      :     14.04s CPU     14.77s WALL (       1 calls)
     potinit      :      1.54s CPU      1.63s WALL (       1 calls)
     hinit0       :      1.51s CPU      1.59s WALL (       1 calls)

     Called by electrons:
     c_bands      :    388.30s CPU    413.59s WALL (      14 calls)
     sum_band     :     75.30s CPU     80.67s WALL (      14 calls)
     v_of_rho     :      4.56s CPU      4.93s WALL (      15 calls)
     newd         :      9.42s CPU     12.42s WALL (      15 calls)
     PAW_pot      :      7.36s CPU      7.47s WALL (      15 calls)
     mix_rho      :      1.00s CPU      1.01s WALL (      14 calls)

     Called by c_bands:
     init_us_2    :      5.00s CPU      5.03s WALL (     870 calls)
     cegterg      :    375.86s CPU    401.09s WALL (     420 calls)

     Called by *egterg:
     cdiaghg      :     24.89s CPU     39.62s WALL (    2744 calls)
     h_psi        :    242.02s CPU    251.81s WALL (    2774 calls)
     s_psi        :     27.21s CPU     27.31s WALL (    2774 calls)
     g_psi        :      0.70s CPU      0.72s WALL (    2324 calls)

     Called by h_psi:
     h_psi:calbec :     28.06s CPU     28.76s WALL (    2774 calls)
     vloc_psi     :    184.38s CPU    193.30s WALL (    2774 calls)
     add_vuspsi   :     27.45s CPU     27.62s WALL (    2774 calls)

     General routines
     calbec       :     37.54s CPU     38.41s WALL (    3194 calls)
     fft          :      4.14s CPU      4.84s WALL (     369 calls)
     ffts         :      0.11s CPU      0.12s WALL (      58 calls)
     fftw         :    190.77s CPU    199.82s WALL (  249982 calls)
     interpolate  :      0.43s CPU      0.46s WALL (      30 calls)
 
     Parallel routines
     fft_scatt_xy :     29.79s CPU     31.00s WALL (  250409 calls)
     fft_scatt_yz :     76.20s CPU     81.01s WALL (  250409 calls)
 
     PWSCF        :   8m26.51s CPU   9m 3.66s WALL

 
   This run was terminated on:  11:33: 0   2Apr2021            

=------------------------------------------------------------------------------=
   JOB DONE.
=------------------------------------------------------------------------------=
