
     Program PWSCF v.6.7MaX starts on  2Apr2021 at 11:33: 1 

     This program is part of the open-source Quantum ESPRESSO suite
     for quantum simulation of materials; please cite
         "P. Giannozzi et al., J. Phys.:Condens. Matter 21 395502 (2009);
         "P. Giannozzi et al., J. Phys.:Condens. Matter 29 465901 (2017);
          URL http://www.quantum-espresso.org", 
     in publications or presentations arising from this work. More details at
     http://www.quantum-espresso.org/quote

     Parallel version (MPI), running on    48 processors

     MPI processes distributed on     1 nodes
     R & G space division:  proc/nbgrp/npool/nimage =      48
     Reading input from Crdimer0.1405-0.4.scf.in

     Current dimensions of program PWSCF are:
     Max number of different atomic species (ntypx) = 10
     Max number of k-points (npk) =  40000
     Max angular momentum in pseudopotentials (lmaxx) =  3
     file N.pbe-n-kjpaw_psl.1.0.0.UPF: wavefunction(s)  2S renormalized
     file Cr.pbe-spn-kjpaw_psl.1.0.0.UPF: wavefunction(s)  3S 3P 3D renormalized
     file Cr.pbe-spn-kjpaw_psl.1.0.0.UPF: wavefunction(s)  3S 3P 3D renormalized

     --------------------------------------------
     Parameters for DFT-D3 Dispersion Correction:
     --------------------------------------------
       Reference C6 values for interpolation: 

         atom   Coordination number   C6
         B          0.000           214.36
         B          0.971           150.74
         B          1.944           106.23
         B          2.913            62.89
         B          4.586            56.06
         N          0.000            50.54
         N          0.994            44.25
         N          2.014            39.35
         N          2.990            31.16
         Cr1        0.000          1381.48
         Cr1        1.827           571.38
         Cr1       10.619           306.69
         Cr2        0.000          1381.48
         Cr2        1.827           571.38
         Cr2       10.619           306.69

       Values used:

         atom   Coordination number  R0_AB[au]  C6      C8
         B          3.337            3.039     62.89   2505.96
         B          3.336            3.039     62.89   2505.98
         B          3.336            3.039     62.89   2505.99
         B          3.335            3.039     62.89   2506.01
         B          3.354            3.039     62.88   2505.52
         B          3.335            3.039     62.89   2506.00
         N          3.135            2.478     31.22    688.69
         N          3.143            2.478     31.21    688.62
         N          3.135            2.478     31.22    688.68
         N          3.134            2.478     31.22    688.70
         N          3.152            2.478     31.21    688.54
         N          3.135            2.478     31.22    688.69
         N          3.147            2.478     31.21    688.58
         N          3.134            2.478     31.22    688.70
         N          3.134            2.478     31.22    688.70
         B          3.351            3.039     62.88   2505.61
         B          3.336            3.039     62.89   2505.98
         B          3.335            3.039     62.89   2506.00
         B          3.354            3.039     62.88   2505.52
         B          3.337            3.039     62.89   2505.96
         B          3.351            3.039     62.88   2505.61
         N          3.147            2.478     31.21    688.58
         B          3.336            3.039     62.89   2505.99
         B          3.356            3.039     62.88   2505.46
         B          3.336            3.039     62.89   2506.00
         N          3.135            2.478     31.22    688.69
         N          3.143            2.478     31.21    688.62
         N          3.134            2.478     31.22    688.70
         N          3.134            2.478     31.22    688.70
         N          3.135            2.478     31.22    688.68
         N          3.134            2.478     31.22    688.70
         B          3.336            3.039     62.89   2506.00
         Cr1        0.752            3.252   1292.77 119308.29
         Cr2        0.752            3.252   1292.77 119308.29

         Molecular C6 ( Ry / a.u.^6 ) =     78140.88


     Subspace diagonalization in iterative solution of the eigenvalue problem:
     one sub-group per band group will be used
     scalapack distributed-memory algorithm (size of sub-group:  6*  6 procs)

 
     Parallelization info
     --------------------
     sticks:   dense  smooth     PW     G-vecs:    dense   smooth      PW
     Min         235      98     26                36277     9874    1408
     Max         236      99     27                36282     9883    1425
     Sum       11311    4741   1285              1741401   474235   68095
 


     bravais-lattice index     =            4
     lattice parameter (alat)  =      18.9275  a.u.
     unit-cell volume          =   10553.3021 (a.u.)^3
     number of atoms/cell      =           34
     number of atomic types    =            4
     number of electrons       =       156.00
     number of Kohn-Sham states=           94
     kinetic-energy cutoff     =      48.0000  Ry
     charge density cutoff     =     457.0000  Ry
     scf convergence threshold =      1.0E-07
     mixing beta               =       0.5000
     number of iterations used =            8  plain     mixing
     Exchange-correlation= SLA  PW   PBX  PBC
                           (   1   4   3   4   0   0   0)

     celldm(1)=  18.927497  celldm(2)=   0.000000  celldm(3)=   1.797125
     celldm(4)=   0.000000  celldm(5)=   0.000000  celldm(6)=   0.000000

     crystal axes: (cart. coord. in units of alat)
               a(1) = (   1.000000   0.000000   0.000000 )  
               a(2) = (  -0.500000   0.866025   0.000000 )  
               a(3) = (   0.000000   0.000000   1.797125 )  

     reciprocal axes: (cart. coord. in units 2 pi/alat)
               b(1) = (  1.000000  0.577350  0.000000 )  
               b(2) = (  0.000000  1.154701  0.000000 )  
               b(3) = (  0.000000  0.000000  0.556444 )  


     PseudoPot. # 1 for B  read from file:
     /home/sf05/q-e-qe-6.7MaX-Release/pseudo/B.pbe-n-kjpaw_psl.1.0.0.UPF
     MD5 check sum: d9c678ba5d3b2fd7b74e61139c9288d8
     Pseudo is Projector augmented-wave + core cor, Zval =  3.0
     Generated using "atomic" code by A. Dal Corso  v.5.1.2
     Shape of augmentation charge: PSQ
     Using radial grid of 1059 points,  4 beta functions with: 
                l(1) =   0
                l(2) =   0
                l(3) =   1
                l(4) =   1
     Q(r) pseudized with 0 coefficients 


     PseudoPot. # 2 for N  read from file:
     /home/sf05/q-e-qe-6.7MaX-Release/pseudo/N.pbe-n-kjpaw_psl.1.0.0.UPF
     MD5 check sum: e0e4e94a9c4025c5b51bd7d8793849bd
     Pseudo is Projector augmented-wave + core cor, Zval =  5.0
     Generated using "atomic" code by A. Dal Corso  v.5.1.2
     Shape of augmentation charge: PSQ
     Using radial grid of 1085 points,  4 beta functions with: 
                l(1) =   0
                l(2) =   0
                l(3) =   1
                l(4) =   1
     Q(r) pseudized with 0 coefficients 


     PseudoPot. # 3 for Cr read from file:
     /home/sf05/q-e-qe-6.7MaX-Release/pseudo/Cr.pbe-spn-kjpaw_psl.1.0.0.UPF
     MD5 check sum: 198f1a2427a48552563eee314eba32ba
     Pseudo is Projector augmented-wave + core cor, Zval = 14.0
     Generated using &quot;atomic&quot; code by A. Dal Corso  v.6.3
     Shape of augmentation charge: PSQ
     Using radial grid of 1183 points,  6 beta functions with: 
                l(1) =   0
                l(2) =   0
                l(3) =   1
                l(4) =   1
                l(5) =   2
                l(6) =   2
     Q(r) pseudized with 0 coefficients 


     PseudoPot. # 4 for Cr read from file:
     /home/sf05/q-e-qe-6.7MaX-Release/pseudo/Cr.pbe-spn-kjpaw_psl.1.0.0.UPF
     MD5 check sum: 198f1a2427a48552563eee314eba32ba
     Pseudo is Projector augmented-wave + core cor, Zval = 14.0
     Generated using &quot;atomic&quot; code by A. Dal Corso  v.6.3
     Shape of augmentation charge: PSQ
     Using radial grid of 1183 points,  6 beta functions with: 
                l(1) =   0
                l(2) =   0
                l(3) =   1
                l(4) =   1
                l(5) =   2
                l(6) =   2
     Q(r) pseudized with 0 coefficients 


     atomic species   valence    mass     pseudopotential
        B              3.00    10.81100     B ( 1.00)
        N              5.00    14.00674     N ( 1.00)
        Cr1           14.00    51.99610     Cr( 1.00)
        Cr2           14.00    51.99610     Cr( 1.00)

     Starting magnetic structure 
     atomic species   magnetization
        B            0.000
        N            0.000
        Cr1          1.000
        Cr2          1.000

     No symmetry found



   Cartesian axes

     site n.     atom                  positions (alat units)
         1           B   tau(   1) = (  -0.1250000   0.2165064   0.8985623  )
         2           B   tau(   2) = (   0.3750000   0.6495191   0.8985623  )
         3           B   tau(   3) = (   0.2500000   0.0000000   0.8985623  )
         4           B   tau(   4) = (   0.7500000   0.0000000   0.8985623  )
         5           B   tau(   5) = (   0.1250000   0.2165064   0.8985623  )
         6           B   tau(   6) = (  -0.3750000   0.6495191   0.8985623  )
         7           N   tau(   7) = (   0.7500005   0.2886748   0.8985623  )
         8           N   tau(   8) = (   0.3750005   0.5051812   0.8985623  )
         9           N   tau(   9) = (   0.3750005   0.0721685   0.8985623  )
        10           N   tau(  10) = (   0.6250005   0.0721685   0.8985623  )
        11           N   tau(  11) = (   0.2500005   0.2886748   0.8985623  )
        12           N   tau(  12) = (   0.6250005   0.5051812   0.8985623  )
        13           N   tau(  13) = (   0.0000005   0.2886748   0.8985623  )
        14           N   tau(  14) = (   0.2500005   0.7216875   0.8985623  )
        15           N   tau(  15) = (  -0.2499995   0.7216875   0.8985623  )
        16           B   tau(  16) = (   0.0000000   0.4330127   0.8985623  )
        17           B   tau(  17) = (   0.1250000   0.6495191   0.8985623  )
        18           B   tau(  18) = (  -0.1250000   0.6495191   0.8985623  )
        19           B   tau(  19) = (   0.3750000   0.2165064   0.8985623  )
        20           B   tau(  20) = (   0.6250000   0.2165064   0.8985623  )
        21           B   tau(  21) = (   0.5000000   0.4330127   0.8985623  )
        22           N   tau(  22) = (   0.5000005   0.2886748   0.8985623  )
        23           B   tau(  23) = (  -0.2500000   0.4330127   0.8985623  )
        24           B   tau(  24) = (   0.2500000   0.4330127   0.8985623  )
        25           B   tau(  25) = (   0.5000000   0.0000000   0.8985623  )
        26           N   tau(  26) = (  -0.1249995   0.5051812   0.8985623  )
        27           N   tau(  27) = (   0.1250005   0.5051812   0.8985623  )
        28           N   tau(  28) = (   0.0000005   0.7216875   0.8985623  )
        29           N   tau(  29) = (   0.5000005   0.7216875   0.8985623  )
        30           N   tau(  30) = (   0.1250005   0.0721685   0.8985623  )
        31           N   tau(  31) = (   0.8750005   0.0721685   0.8985623  )
        32           B   tau(  32) = (   0.0000000   0.0000000   0.8985623  )
        33           Cr1 tau(  33) = (   0.3905000   0.3464102   1.2040735  )
        34           Cr2 tau(  34) = (   0.1095000   0.3464102   1.2040735  )

     number of k points=    15  Gaussian smearing, width (Ry)=  0.0000
                       cart. coord. in units 2pi/alat
        k(    1) = (   0.1666667   0.2886751   0.0000000), wk =   0.0740741
        k(    2) = (   0.1666667  -0.4811252   0.0000000), wk =   0.0740741
        k(    3) = (   0.1666667  -0.0962250   0.0000000), wk =   0.0740741
        k(    4) = (  -0.5000000  -0.8660254   0.0000000), wk =   0.0370370
        k(    5) = (  -0.1666667   0.2886751   0.0000000), wk =   0.0740741
        k(    6) = (   0.3333333   0.0000000   0.0000000), wk =   0.0740741
        k(    7) = (  -0.1666667  -0.4811252   0.0000000), wk =   0.0740741
        k(    8) = (   0.5000000  -0.0962250   0.0000000), wk =   0.0740741
        k(    9) = (  -0.3333333  -0.3849002   0.0000000), wk =   0.0740741
        k(   10) = (   0.5000000   0.0962250   0.0000000), wk =   0.0740741
        k(   11) = (  -0.3333333   0.3849002   0.0000000), wk =   0.0740741
        k(   12) = (  -0.1666667  -0.0962250   0.0000000), wk =   0.0740741
        k(   13) = (  -0.0000000  -0.1924501   0.0000000), wk =   0.0740741
        k(   14) = (   0.5000000  -0.8660254   0.0000000), wk =   0.0370370
        k(   15) = (  -1.0000000   0.0000000   0.0000000), wk =   0.0370370

     Dense  grid:  1741401 G-vectors     FFT dimensions: ( 135, 135, 240)

     Smooth grid:   474235 G-vectors     FFT dimensions: (  90,  90, 160)

     Estimated max dynamical RAM per process >     218.62 MB

     Estimated total dynamical RAM >      10.25 GB
     Generating pointlists ...
     new r_m :   0.0595 (alat units)  1.1269 (a.u.) for type    1
     new r_m :   0.0595 (alat units)  1.1269 (a.u.) for type    2
     new r_m :   0.1159 (alat units)  2.1939 (a.u.) for type    3
     new r_m :   0.1159 (alat units)  2.1939 (a.u.) for type    4

     Initial potential from superposition of free atoms

     starting charge  155.99382, renormalised to  156.00000

     negative rho (up, down):  6.712E-03 4.655E-04
     Starting wfcs are  148 randomized atomic wfcs
     Checking if some PAW data can be deallocated... 

     total cpu time spent up to now is       20.1 secs

     Self-consistent Calculation

     iteration #  1     ecut=    48.00 Ry     beta= 0.50
     Davidson diagonalization with overlap
     ethr =  1.00E-02,  avg # of iterations =  2.8

     negative rho (up, down):  4.900E-03 2.912E-03

     total cpu time spent up to now is       60.2 secs

     total energy              =   -1130.73374819 Ry
     estimated scf accuracy    <      11.36861563 Ry

     total magnetization       =    12.00 Bohr mag/cell
     absolute magnetization    =    12.12 Bohr mag/cell

     iteration #  2     ecut=    48.00 Ry     beta= 0.50
     Davidson diagonalization with overlap
     ethr =  7.29E-03,  avg # of iterations =  2.8

     negative rho (up, down):  8.851E-03 7.932E-03

     total cpu time spent up to now is       97.5 secs

     total energy              =   -1132.93304341 Ry
     estimated scf accuracy    <       3.74948305 Ry

     total magnetization       =    10.00 Bohr mag/cell
     absolute magnetization    =    10.08 Bohr mag/cell

     iteration #  3     ecut=    48.00 Ry     beta= 0.50
     Davidson diagonalization with overlap
     ethr =  2.40E-03,  avg # of iterations =  7.4

     negative rho (up, down):  4.168E-03 3.916E-03

     total cpu time spent up to now is      136.0 secs

     total energy              =   -1133.56378181 Ry
     estimated scf accuracy    <       0.86354115 Ry

     total magnetization       =    10.89 Bohr mag/cell
     absolute magnetization    =    10.96 Bohr mag/cell

     iteration #  4     ecut=    48.00 Ry     beta= 0.50
     Davidson diagonalization with overlap
     ethr =  5.54E-04,  avg # of iterations =  6.7

     negative rho (up, down):  7.386E-03 7.678E-03

     total cpu time spent up to now is      172.3 secs

     total energy              =   -1133.77734229 Ry
     estimated scf accuracy    <       0.48091877 Ry

     total magnetization       =    10.00 Bohr mag/cell
     absolute magnetization    =    10.02 Bohr mag/cell

     iteration #  5     ecut=    48.00 Ry     beta= 0.50
     Davidson diagonalization with overlap
     ethr =  3.08E-04,  avg # of iterations =  6.3

     negative rho (up, down):  4.570E-03 4.432E-03

     total cpu time spent up to now is      210.4 secs

     total energy              =   -1133.81305722 Ry
     estimated scf accuracy    <       0.07727314 Ry

     total magnetization       =    10.00 Bohr mag/cell
     absolute magnetization    =    10.02 Bohr mag/cell

     iteration #  6     ecut=    48.00 Ry     beta= 0.50
     Davidson diagonalization with overlap
     ethr =  4.95E-05,  avg # of iterations =  8.6

     negative rho (up, down):  3.698E-03 3.952E-03

     total cpu time spent up to now is      252.1 secs

     total energy              =   -1133.82448965 Ry
     estimated scf accuracy    <       0.02210364 Ry

     total magnetization       =    10.00 Bohr mag/cell
     absolute magnetization    =    10.02 Bohr mag/cell

     iteration #  7     ecut=    48.00 Ry     beta= 0.50
     Davidson diagonalization with overlap
     ethr =  1.42E-05,  avg # of iterations =  6.9

     negative rho (up, down):  3.343E-03 3.839E-03

     total cpu time spent up to now is      288.6 secs

     total energy              =   -1133.82825930 Ry
     estimated scf accuracy    <       0.00249889 Ry

     total magnetization       =    10.00 Bohr mag/cell
     absolute magnetization    =    10.01 Bohr mag/cell

     iteration #  8     ecut=    48.00 Ry     beta= 0.50
     Davidson diagonalization with overlap
     ethr =  1.60E-06,  avg # of iterations =  8.2

     negative rho (up, down):  3.226E-03 3.781E-03

     total cpu time spent up to now is      331.5 secs

     total energy              =   -1133.82886739 Ry
     estimated scf accuracy    <       0.00045318 Ry

     total magnetization       =    10.00 Bohr mag/cell
     absolute magnetization    =    10.01 Bohr mag/cell

     iteration #  9     ecut=    48.00 Ry     beta= 0.50
     Davidson diagonalization with overlap
     ethr =  2.91E-07,  avg # of iterations =  2.5

     negative rho (up, down):  3.164E-03 3.774E-03

     total cpu time spent up to now is      362.3 secs

     total energy              =   -1133.82896957 Ry
     estimated scf accuracy    <       0.00007436 Ry

     total magnetization       =    10.00 Bohr mag/cell
     absolute magnetization    =    10.01 Bohr mag/cell

     iteration # 10     ecut=    48.00 Ry     beta= 0.50
     Davidson diagonalization with overlap
     ethr =  4.77E-08,  avg # of iterations =  4.1

     negative rho (up, down):  3.151E-03 3.787E-03

     total cpu time spent up to now is      401.5 secs

     total energy              =   -1133.82902195 Ry
     estimated scf accuracy    <       0.00001696 Ry

     total magnetization       =    10.00 Bohr mag/cell
     absolute magnetization    =    10.01 Bohr mag/cell

     iteration # 11     ecut=    48.00 Ry     beta= 0.50
     Davidson diagonalization with overlap
     ethr =  1.09E-08,  avg # of iterations =  4.0

     negative rho (up, down):  3.141E-03 3.793E-03

     total cpu time spent up to now is      439.0 secs

     total energy              =   -1133.82903637 Ry
     estimated scf accuracy    <       0.00000474 Ry

     total magnetization       =    10.00 Bohr mag/cell
     absolute magnetization    =    10.01 Bohr mag/cell

     iteration # 12     ecut=    48.00 Ry     beta= 0.50
     Davidson diagonalization with overlap
     ethr =  3.04E-09,  avg # of iterations =  4.5

     negative rho (up, down):  3.137E-03 3.800E-03

     total cpu time spent up to now is      472.9 secs

     total energy              =   -1133.82904037 Ry
     estimated scf accuracy    <       0.00000087 Ry

     total magnetization       =    10.00 Bohr mag/cell
     absolute magnetization    =    10.01 Bohr mag/cell

     iteration # 13     ecut=    48.00 Ry     beta= 0.50
     Davidson diagonalization with overlap
     ethr =  5.58E-10,  avg # of iterations =  4.6

     negative rho (up, down):  3.134E-03 3.803E-03

     total cpu time spent up to now is      506.5 secs

     total energy              =   -1133.82904180 Ry
     estimated scf accuracy    <       0.00000022 Ry

     total magnetization       =    10.00 Bohr mag/cell
     absolute magnetization    =    10.01 Bohr mag/cell

     iteration # 14     ecut=    48.00 Ry     beta= 0.50
     Davidson diagonalization with overlap
     ethr =  1.44E-10,  avg # of iterations =  4.7

     negative rho (up, down):  3.133E-03 3.803E-03
 
     Magnetic moment per site:
     atom:    1    charge:    0.8808    magn:    0.0008    constr:    0.0000
     atom:    2    charge:    0.8802    magn:    0.0006    constr:    0.0000
     atom:    3    charge:    0.8800    magn:    0.0001    constr:    0.0000
     atom:    4    charge:    0.8804    magn:    0.0001    constr:    0.0000
     atom:    5    charge:    0.8801    magn:    0.0002    constr:    0.0000
     atom:    6    charge:    0.8804    magn:    0.0001    constr:    0.0000
     atom:    7    charge:    2.8610    magn:    0.0003    constr:    0.0000
     atom:    8    charge:    2.8607    magn:    0.0044    constr:    0.0000
     atom:    9    charge:    2.8608    magn:    0.0016    constr:    0.0000
     atom:   10    charge:    2.8609    magn:    0.0004    constr:    0.0000
     atom:   11    charge:    2.8605    magn:    0.0073    constr:    0.0000
     atom:   12    charge:    2.8610    magn:    0.0008    constr:    0.0000
     atom:   13    charge:    2.8596    magn:    0.0052    constr:    0.0000
     atom:   14    charge:    2.8598    magn:    0.0003    constr:    0.0000
     atom:   15    charge:    2.8599    magn:    0.0000    constr:    0.0000
     atom:   16    charge:    0.8805    magn:   -0.0000    constr:    0.0000
     atom:   17    charge:    0.8799    magn:    0.0006    constr:    0.0000
     atom:   18    charge:    0.8800    magn:    0.0001    constr:    0.0000
     atom:   19    charge:    0.8796    magn:    0.0002    constr:    0.0000
     atom:   20    charge:    0.8802    magn:    0.0008    constr:    0.0000
     atom:   21    charge:    0.8802    magn:   -0.0000    constr:    0.0000
     atom:   22    charge:    2.8609    magn:    0.0052    constr:    0.0000
     atom:   23    charge:    0.8803    magn:    0.0001    constr:    0.0000
     atom:   24    charge:    0.8789    magn:   -0.0002    constr:    0.0000
     atom:   25    charge:    0.8799    magn:    0.0001    constr:    0.0000
     atom:   26    charge:    2.8599    magn:    0.0008    constr:    0.0000
     atom:   27    charge:    2.8596    magn:    0.0044    constr:    0.0000
     atom:   28    charge:    2.8598    magn:    0.0002    constr:    0.0000
     atom:   29    charge:    2.8596    magn:    0.0002    constr:    0.0000
     atom:   30    charge:    2.8595    magn:    0.0016    constr:    0.0000
     atom:   31    charge:    2.8596    magn:    0.0004    constr:    0.0000
     atom:   32    charge:    0.8802    magn:    0.0001    constr:    0.0000
     atom:   33    charge:   12.4973    magn:    4.2232    constr:    0.0000
     atom:   34    charge:   12.4972    magn:    4.2231    constr:    0.0000

     total cpu time spent up to now is      540.6 secs

     End of self-consistent calculation

 ------ SPIN UP ------------


          k = 0.1667 0.2887 0.0000 ( 59267 PWs)   bands (ev):

   -72.8813 -72.8723 -44.4352 -44.3486 -44.2837 -44.2751 -44.2537 -44.2449
   -21.2508 -20.6646 -20.6593 -20.1126 -20.0957 -19.5913 -19.5861 -19.1030
   -18.7016 -18.6949 -18.4652 -18.4498 -18.1984 -18.0890 -18.0806 -17.8529
   -12.4883 -12.2135 -12.2022 -11.8250 -11.8211 -11.6623 -11.1956 -11.1929
   -10.3958 -10.3713 -10.1215 -10.1183  -9.5927  -9.5918  -8.8435  -8.8288
    -8.8240  -8.7706  -8.7646  -8.5999  -8.2006  -8.0539  -8.0197  -7.8344
    -7.8295  -7.4423  -7.4404  -7.2899  -7.2566  -7.2121  -7.2099  -6.9682
    -6.9546  -6.5679  -6.5419  -6.1575  -6.1563  -5.8741  -5.4220  -5.2953
    -5.2814  -5.2038  -4.9211  -4.8976  -4.5089  -4.3596  -4.3427  -3.9823
    -2.8905  -2.0602  -1.9846  -1.8494  -1.6373  -1.6020  -1.4784  -1.4646
    -1.4059  -1.3603  -1.3035  -0.7033   0.6674   0.9592   1.0548   1.1623
     1.2753   1.4651   1.4982   1.5813   1.6002   1.7762

          k = 0.1667-0.4811 0.0000 ( 59291 PWs)   bands (ev):

   -72.8813 -72.8723 -44.4353 -44.3486 -44.2837 -44.2751 -44.2537 -44.2449
   -21.1208 -20.9152 -20.7268 -20.1647 -19.8079 -19.4702 -19.3202 -19.1788
   -19.0176 -18.7828 -18.6456 -18.5467 -18.1532 -18.0914 -17.9258 -17.7271
   -12.3526 -12.1176 -12.0482 -11.9099 -11.6843 -11.6622 -11.5563 -10.9453
   -10.8943 -10.6276 -10.5264  -9.8642  -9.6969  -9.3396  -9.1146  -8.6714
    -8.6268  -8.5569  -8.3924  -8.3694  -8.1651  -8.1264  -8.0669  -8.0535
    -7.6927  -7.6270  -7.4981  -7.4774  -7.3595  -7.1745  -7.0711  -6.8631
    -6.6256  -6.3918  -6.1796  -6.1613  -5.9757  -5.9328  -5.7873  -5.7475
    -5.4548  -5.4016  -5.2138  -5.0434  -4.4478  -4.3493  -4.0923  -3.7698
    -2.8876  -2.0603  -1.9846  -1.8458  -1.6364  -1.6017  -1.4813  -1.4652
    -1.4062  -1.3600  -1.3041  -0.7077   0.5777   0.9494   1.0804   1.1132
     1.2156   1.2370   1.3611   1.8396   1.9070   2.1245

          k = 0.1667-0.0962 0.0000 ( 59226 PWs)   bands (ev):

   -72.8813 -72.8723 -44.4352 -44.3486 -44.2837 -44.2751 -44.2537 -44.2449
   -21.3171 -20.5401 -20.3492 -20.3422 -19.9920 -19.9847 -19.8087 -18.7323
   -18.7272 -18.3816 -18.3666 -18.3615 -18.2760 -18.2608 -18.0804 -18.0743
   -12.5138 -12.5038 -12.4117 -11.5855 -11.5801 -11.4344 -11.4198 -10.9298
   -10.9274  -9.9323  -9.9306  -9.6797  -9.3814  -9.3734  -9.2336  -9.2319
    -9.0455  -9.0438  -8.9266  -8.3266  -8.3257  -7.9066  -7.9014  -7.8846
    -7.8486  -7.7739  -7.6115  -7.5853  -7.1373  -7.0959  -6.9632  -6.8915
    -6.8891  -6.8535  -6.5343  -6.5323  -6.2610  -5.3505  -5.3230  -5.1468
    -5.0689  -4.8134  -4.7944  -4.7603  -4.6225  -4.6026  -4.3558  -4.3342
    -2.8937  -2.0603  -1.9845  -1.8529  -1.6392  -1.6023  -1.4757  -1.4641
    -1.4056  -1.3606  -1.3029  -0.6988   0.7763   0.9303   1.0052   1.1820
     1.2674   1.3262   1.5731   1.5819   1.6985   1.9223

          k =-0.5000-0.8660 0.0000 ( 59292 PWs)   bands (ev):

   -72.8813 -72.8723 -44.4353 -44.3486 -44.2837 -44.2751 -44.2537 -44.2449
   -21.0544 -21.0498 -20.4733 -20.4673 -19.4334 -19.4267 -19.4147 -19.4102
   -18.9963 -18.9915 -18.3316 -18.3288 -18.3193 -18.3102 -17.7965 -17.7920
   -12.0762 -12.0725 -12.0672 -12.0603 -11.8822 -11.8768 -11.3330 -11.3310
   -10.2381 -10.2363 -10.1396 -10.1348 -10.1333 -10.1297  -8.5912  -8.5533
    -8.5513  -8.5494  -8.5479  -8.5425  -7.8680  -7.8661  -7.8645  -7.8615
    -7.8258  -7.8239  -7.7830  -7.7572  -7.4947  -7.4886  -6.6143  -6.6123
    -6.3607  -6.3251  -6.3221  -6.2953  -6.1943  -6.1900  -5.7088  -5.7051
    -5.5501  -5.5444  -4.7298  -4.7140  -4.7130  -4.6902  -3.8896  -3.8713
    -2.8762  -2.0586  -1.9850  -1.8480  -1.6369  -1.6029  -1.4815  -1.4663
    -1.4109  -1.3643  -1.3027  -0.8254   0.7575   1.0548   1.0932   1.1780
     1.4259   1.5402   1.5882   1.6135   1.6474   1.7730

          k =-0.1667 0.2887 0.0000 ( 59267 PWs)   bands (ev):

   -72.8813 -72.8723 -44.4352 -44.3486 -44.2837 -44.2751 -44.2537 -44.2449
   -21.2508 -20.6646 -20.6593 -20.1126 -20.0957 -19.5914 -19.5861 -19.1030
   -18.7017 -18.6949 -18.4652 -18.4498 -18.1984 -18.0890 -18.0806 -17.8529
   -12.4883 -12.2135 -12.2022 -11.8250 -11.8211 -11.6623 -11.1956 -11.1929
   -10.3958 -10.3713 -10.1215 -10.1183  -9.5927  -9.5918  -8.8435  -8.8288
    -8.8239  -8.7707  -8.7646  -8.5999  -8.2007  -8.0539  -8.0197  -7.8343
    -7.8294  -7.4423  -7.4404  -7.2899  -7.2566  -7.2121  -7.2099  -6.9683
    -6.9547  -6.5678  -6.5419  -6.1576  -6.1563  -5.8741  -5.4221  -5.2953
    -5.2814  -5.2037  -4.9211  -4.8976  -4.5090  -4.3596  -4.3427  -3.9823
    -2.8905  -2.0602  -1.9846  -1.8494  -1.6373  -1.6020  -1.4784  -1.4646
    -1.4059  -1.3603  -1.3035  -0.7033   0.6674   0.9592   1.0548   1.1623
     1.2752   1.4651   1.4982   1.5813   1.6002   1.7762

          k = 0.3333 0.0000 0.0000 ( 59267 PWs)   bands (ev):

   -72.8813 -72.8723 -44.4352 -44.3486 -44.2837 -44.2751 -44.2537 -44.2449
   -21.2503 -20.6914 -20.6323 -20.1127 -20.0939 -19.6187 -19.5609 -19.1053
   -18.7190 -18.6720 -18.4674 -18.4496 -18.1936 -18.1127 -18.0640 -17.8520
   -12.4872 -12.2152 -12.2009 -11.8351 -11.8139 -11.6604 -11.2143 -11.1740
   -10.3950 -10.3709 -10.1357 -10.1052  -9.5993  -9.5837  -8.8457  -8.8308
    -8.8170  -8.7931  -8.7435  -8.6006  -8.2028  -8.1060  -7.9669  -7.8327
    -7.8285  -7.4488  -7.4338  -7.2957  -7.2453  -7.2221  -7.1993  -6.9697
    -6.9551  -6.6221  -6.4950  -6.1604  -6.1525  -5.8813  -5.4221  -5.3126
    -5.2517  -5.2040  -4.9320  -4.8896  -4.4998  -4.3904  -4.3253  -3.9809
    -2.8832  -2.0590  -1.9849  -1.8509  -1.6387  -1.6028  -1.4784  -1.4650
    -1.4083  -1.3633  -1.3026  -0.7852   0.7930   1.0401   1.1620   1.2399
     1.2998   1.4484   1.5124   1.5599   1.5896   1.7680

          k =-0.1667-0.4811 0.0000 ( 59291 PWs)   bands (ev):

   -72.8813 -72.8723 -44.4353 -44.3486 -44.2837 -44.2751 -44.2537 -44.2449
   -21.1208 -20.9152 -20.7268 -20.1647 -19.8079 -19.4702 -19.3202 -19.1788
   -19.0177 -18.7828 -18.6456 -18.5467 -18.1532 -18.0914 -17.9258 -17.7271
   -12.3527 -12.1176 -12.0482 -11.9099 -11.6843 -11.6622 -11.5563 -10.9453
   -10.8943 -10.6276 -10.5263  -9.8641  -9.6969  -9.3397  -9.1147  -8.6714
    -8.6267  -8.5570  -8.3923  -8.3694  -8.1650  -8.1264  -8.0670  -8.0536
    -7.6927  -7.6270  -7.4980  -7.4774  -7.3595  -7.1744  -7.0711  -6.8631
    -6.6257  -6.3918  -6.1796  -6.1614  -5.9757  -5.9327  -5.7873  -5.7475
    -5.4549  -5.4016  -5.2138  -5.0434  -4.4477  -4.3493  -4.0923  -3.7698
    -2.8876  -2.0603  -1.9846  -1.8458  -1.6364  -1.6017  -1.4813  -1.4652
    -1.4062  -1.3600  -1.3041  -0.7077   0.5777   0.9494   1.0804   1.1132
     1.2156   1.2369   1.3611   1.8397   1.9071   2.1244

          k = 0.5000-0.0962 0.0000 ( 59291 PWs)   bands (ev):

   -72.8813 -72.8723 -44.4352 -44.3486 -44.2837 -44.2751 -44.2537 -44.2449
   -21.1176 -20.9240 -20.7211 -20.1628 -19.8080 -19.4719 -19.3274 -19.1728
   -19.0189 -18.7833 -18.6345 -18.5537 -18.1404 -18.1095 -17.9221 -17.7268
   -12.3505 -12.1185 -12.0461 -11.9148 -11.6982 -11.6462 -11.5584 -10.9464
   -10.8912 -10.6252 -10.5293  -9.8620  -9.6975  -9.3406  -9.1140  -8.6601
    -8.6276  -8.5545  -8.4024  -8.3969  -8.1628  -8.1055  -8.0809  -8.0405
    -7.6882  -7.6277  -7.4969  -7.4789  -7.3529  -7.1757  -7.0722  -6.8628
    -6.6262  -6.3995  -6.1996  -6.1608  -5.9593  -5.9322  -5.7864  -5.7502
    -5.4561  -5.4010  -5.1887  -5.0592  -4.4232  -4.3813  -4.0878  -3.7696
    -2.8763  -2.0586  -1.9851  -1.8480  -1.6374  -1.6029  -1.4815  -1.4663
    -1.4109  -1.3644  -1.3027  -0.8251   0.7424   1.0366   1.1133   1.1811
     1.2822   1.3362   1.5320   1.7628   1.8463   1.8841

          k =-0.3333-0.3849 0.0000 ( 59291 PWs)   bands (ev):

   -72.8813 -72.8723 -44.4352 -44.3486 -44.2837 -44.2751 -44.2537 -44.2449
   -21.1187 -20.9209 -20.7233 -20.1625 -19.8101 -19.4701 -19.3217 -19.1765
   -19.0224 -18.7811 -18.6361 -18.5530 -18.1429 -18.1063 -17.9223 -17.7271
   -12.3519 -12.1153 -12.0491 -11.9127 -11.6860 -11.6602 -11.5574 -10.9460
   -10.8915 -10.6246 -10.5297  -9.8622  -9.6975  -9.3406  -9.1151  -8.6638
    -8.6259  -8.5566  -8.3944  -8.3899  -8.1645  -8.1134  -8.0667  -8.0564
    -7.6887  -7.6258  -7.5044  -7.4719  -7.3516  -7.1758  -7.0728  -6.8708
    -6.6241  -6.3923  -6.1819  -6.1635  -5.9713  -5.9307  -5.7866  -5.7613
    -5.4559  -5.3946  -5.1895  -5.0599  -4.4266  -4.3777  -4.0873  -3.7698
    -2.8800  -2.0593  -1.9849  -1.8473  -1.6367  -1.6025  -1.4813  -1.4660
    -1.4095  -1.3629  -1.3032  -0.7893   0.6855   1.0397   1.1086   1.1508
     1.2327   1.3560   1.3843   1.8219   1.8961   1.9248

          k = 0.5000 0.0962 0.0000 ( 59291 PWs)   bands (ev):

   -72.8813 -72.8723 -44.4352 -44.3486 -44.2837 -44.2751 -44.2537 -44.2449
   -21.1176 -20.9239 -20.7211 -20.1628 -19.8080 -19.4719 -19.3274 -19.1728
   -19.0189 -18.7833 -18.6345 -18.5537 -18.1404 -18.1095 -17.9221 -17.7268
   -12.3505 -12.1185 -12.0461 -11.9148 -11.6981 -11.6462 -11.5584 -10.9464
   -10.8912 -10.6252 -10.5293  -9.8620  -9.6975  -9.3406  -9.1140  -8.6601
    -8.6276  -8.5545  -8.4024  -8.3969  -8.1628  -8.1055  -8.0809  -8.0405
    -7.6882  -7.6276  -7.4969  -7.4790  -7.3529  -7.1758  -7.0721  -6.8629
    -6.6261  -6.3995  -6.1996  -6.1607  -5.9593  -5.9322  -5.7865  -5.7502
    -5.4561  -5.4010  -5.1887  -5.0592  -4.4232  -4.3813  -4.0878  -3.7696
    -2.8763  -2.0586  -1.9851  -1.8480  -1.6374  -1.6029  -1.4815  -1.4663
    -1.4109  -1.3644  -1.3027  -0.8251   0.7423   1.0367   1.1133   1.1811
     1.2822   1.3362   1.5320   1.7628   1.8463   1.8841

          k =-0.3333 0.3849 0.0000 ( 59291 PWs)   bands (ev):

   -72.8813 -72.8723 -44.4352 -44.3486 -44.2837 -44.2751 -44.2537 -44.2449
   -21.1187 -20.9209 -20.7233 -20.1625 -19.8101 -19.4701 -19.3217 -19.1765
   -19.0224 -18.7811 -18.6361 -18.5530 -18.1429 -18.1063 -17.9223 -17.7271
   -12.3519 -12.1153 -12.0492 -11.9127 -11.6860 -11.6603 -11.5574 -10.9461
   -10.8915 -10.6246 -10.5298  -9.8623  -9.6975  -9.3406  -9.1151  -8.6638
    -8.6259  -8.5565  -8.3945  -8.3899  -8.1646  -8.1134  -8.0667  -8.0564
    -7.6886  -7.6257  -7.5044  -7.4719  -7.3516  -7.1758  -7.0729  -6.8708
    -6.6241  -6.3923  -6.1819  -6.1635  -5.9713  -5.9308  -5.7866  -5.7613
    -5.4558  -5.3946  -5.1895  -5.0599  -4.4267  -4.3777  -4.0872  -3.7698
    -2.8800  -2.0593  -1.9849  -1.8473  -1.6367  -1.6025  -1.4813  -1.4660
    -1.4095  -1.3629  -1.3032  -0.7893   0.6855   1.0397   1.1086   1.1508
     1.2327   1.3560   1.3843   1.8219   1.8962   1.9248

          k =-0.1667-0.0962 0.0000 ( 59226 PWs)   bands (ev):

   -72.8813 -72.8723 -44.4352 -44.3486 -44.2837 -44.2751 -44.2537 -44.2449
   -21.3171 -20.5401 -20.3491 -20.3422 -19.9920 -19.9847 -19.8087 -18.7323
   -18.7272 -18.3816 -18.3666 -18.3615 -18.2761 -18.2608 -18.0804 -18.0743
   -12.5138 -12.5038 -12.4117 -11.5855 -11.5801 -11.4344 -11.4198 -10.9298
   -10.9274  -9.9323  -9.9306  -9.6797  -9.3814  -9.3734  -9.2336  -9.2320
    -9.0455  -9.0438  -8.9266  -8.3266  -8.3257  -7.9066  -7.9014  -7.8846
    -7.8486  -7.7739  -7.6115  -7.5853  -7.1373  -7.0959  -6.9632  -6.8915
    -6.8890  -6.8535  -6.5343  -6.5323  -6.2611  -5.3505  -5.3230  -5.1467
    -5.0690  -4.8134  -4.7943  -4.7603  -4.6225  -4.6026  -4.3558  -4.3342
    -2.8937  -2.0603  -1.9845  -1.8529  -1.6392  -1.6023  -1.4757  -1.4641
    -1.4056  -1.3606  -1.3029  -0.6988   0.7763   0.9303   1.0052   1.1820
     1.2674   1.3262   1.5732   1.5819   1.6985   1.9224

          k =-0.0000-0.1925 0.0000 ( 59226 PWs)   bands (ev):

   -72.8813 -72.8723 -44.4352 -44.3486 -44.2837 -44.2751 -44.2537 -44.2449
   -21.3173 -20.5342 -20.3619 -20.3395 -19.9927 -19.9755 -19.8130 -18.7372
   -18.7179 -18.4068 -18.3693 -18.3549 -18.2571 -18.2569 -18.0889 -18.0718
   -12.5159 -12.5026 -12.4108 -11.5900 -11.5764 -11.4336 -11.4183 -10.9322
   -10.9268  -9.9353  -9.9279  -9.6797  -9.3816  -9.3713  -9.2351  -9.2316
    -9.0452  -9.0447  -8.9273  -8.3287  -8.3229  -7.9067  -7.9007  -7.8652
    -7.8464  -7.7759  -7.6410  -7.5919  -7.1172  -7.0873  -6.9615  -6.8954
    -6.8871  -6.8666  -6.5373  -6.5283  -6.2618  -5.3484  -5.3144  -5.1470
    -5.0686  -4.8637  -4.7896  -4.7519  -4.5968  -4.5912  -4.3651  -4.3354
    -2.8972  -2.0609  -1.9844  -1.8521  -1.6386  -1.6018  -1.4758  -1.4640
    -1.4045  -1.3591  -1.3033  -0.6511   0.6904   0.8571   1.0014   1.1557
     1.2194   1.3803   1.5565   1.6050   1.6905   1.9655

          k = 0.5000-0.8660 0.0000 ( 59292 PWs)   bands (ev):

   -72.8813 -72.8723 -44.4353 -44.3486 -44.2837 -44.2751 -44.2537 -44.2449
   -21.0545 -21.0497 -20.4732 -20.4673 -19.4334 -19.4267 -19.4147 -19.4101
   -18.9964 -18.9915 -18.3316 -18.3288 -18.3194 -18.3101 -17.7965 -17.7920
   -12.0762 -12.0725 -12.0673 -12.0602 -11.8821 -11.8768 -11.3330 -11.3309
   -10.2381 -10.2364 -10.1396 -10.1348 -10.1333 -10.1297  -8.5912  -8.5533
    -8.5514  -8.5495  -8.5479  -8.5424  -7.8679  -7.8661  -7.8645  -7.8615
    -7.8259  -7.8239  -7.7830  -7.7572  -7.4948  -7.4887  -6.6142  -6.6123
    -6.3607  -6.3251  -6.3221  -6.2953  -6.1943  -6.1899  -5.7088  -5.7051
    -5.5502  -5.5444  -4.7298  -4.7140  -4.7129  -4.6902  -3.8896  -3.8713
    -2.8762  -2.0586  -1.9850  -1.8480  -1.6369  -1.6029  -1.4815  -1.4663
    -1.4109  -1.3643  -1.3027  -0.8254   0.7575   1.0549   1.0933   1.1780
     1.4259   1.5402   1.5882   1.6135   1.6475   1.7730

          k =-1.0000 0.0000 0.0000 ( 59292 PWs)   bands (ev):

   -72.8813 -72.8723 -44.4353 -44.3486 -44.2837 -44.2751 -44.2537 -44.2448
   -21.0801 -21.0209 -20.4834 -20.4624 -19.4450 -19.4126 -19.4120 -19.4082
   -19.0190 -18.9717 -18.3803 -18.3334 -18.2953 -18.2811 -17.8042 -17.7866
   -12.1159 -12.0768 -12.0465 -12.0334 -11.8879 -11.8713 -11.3547 -11.3107
   -10.2534 -10.2382 -10.1370 -10.1355 -10.1270 -10.1232  -8.6354  -8.5822
    -8.5605  -8.5289  -8.5191  -8.4928  -7.8842  -7.8770  -7.8637  -7.8552
    -7.8202  -7.8152  -7.7971  -7.7583  -7.5191  -7.4670  -6.6182  -6.6052
    -6.3706  -6.3175  -6.3039  -6.2892  -6.2135  -6.1738  -5.7414  -5.6812
    -5.5712  -5.5237  -4.8234  -4.7157  -4.6720  -4.6389  -3.8961  -3.8670
    -2.8913  -2.0606  -1.9845  -1.8451  -1.6363  -1.6013  -1.4814  -1.4647
    -1.4042  -1.3587  -1.3044  -0.6608   0.5356   0.8429   1.0991   1.1118
     1.1475   1.4677   1.5532   1.6226   1.6355   1.9351

 ------ SPIN DOWN ----------


          k = 0.1667 0.2887 0.0000 ( 59267 PWs)   bands (ev):

   -68.6850 -68.6747 -40.3706 -40.2684 -40.1094 -40.0992 -40.0492 -40.0386
   -21.2469 -20.6615 -20.6549 -20.1084 -20.0923 -19.5886 -19.5814 -19.0991
   -18.6981 -18.6897 -18.4610 -18.4461 -18.1937 -18.0855 -18.0769 -17.8488
   -12.4858 -12.2106 -12.2000 -11.8228 -11.8188 -11.6602 -11.1934 -11.1899
   -10.3930 -10.3688 -10.1191 -10.1151  -9.5904  -9.5892  -8.8317  -8.8212
    -8.8181  -8.7687  -8.7617  -8.5976  -8.1983  -8.0302  -8.0100  -7.8318
    -7.8272  -7.4391  -7.4372  -7.2708  -7.2436  -7.2101  -7.2070  -6.9656
    -6.9525  -6.5469  -6.5338  -6.1550  -6.1537  -5.8585  -5.4190  -5.2766
    -5.2662  -5.2011  -4.9064  -4.8856  -4.4930  -4.3451  -4.3328  -3.9687
    -1.4466   0.3961   0.8661   1.0528   1.0999   1.1691   1.2588   1.3221
     1.4093   1.4949   1.5267   1.5712   1.6435   1.7233   1.8717   1.9939
     2.0471   2.1293   2.1490   2.1979   2.2619   2.3358

          k = 0.1667-0.4811 0.0000 ( 59291 PWs)   bands (ev):

   -68.6850 -68.6747 -40.3706 -40.2684 -40.1094 -40.0992 -40.0493 -40.0386
   -21.1166 -20.9120 -20.7229 -20.1607 -19.8042 -19.4664 -19.3164 -19.1746
   -19.0138 -18.7790 -18.6402 -18.5436 -18.1476 -18.0892 -17.9215 -17.7229
   -12.3500 -12.1151 -12.0460 -11.9076 -11.6824 -11.6595 -11.5539 -10.9427
   -10.8914 -10.6248 -10.5240  -9.8611  -9.6945  -9.3368  -9.1122  -8.6484
    -8.6242  -8.5539  -8.3902  -8.3578  -8.1627  -8.1094  -8.0647  -8.0510
    -7.6899  -7.6245  -7.4956  -7.4751  -7.3421  -7.1714  -7.0688  -6.8477
    -6.6225  -6.3768  -6.1641  -6.1588  -5.9606  -5.9296  -5.7846  -5.7329
    -5.4523  -5.3868  -5.1922  -5.0344  -4.4283  -4.3426  -4.0786  -3.7567
    -1.4373   0.3846   0.8396   1.0222   1.0600   1.1242   1.1847   1.2523
     1.3027   1.4547   1.5431   1.7403   1.7912   1.8294   1.8880   2.0839
     2.1296   2.1458   2.1769   2.2186   2.2819   2.3255

          k = 0.1667-0.0962 0.0000 ( 59226 PWs)   bands (ev):

   -68.6850 -68.6747 -40.3706 -40.2685 -40.1094 -40.0992 -40.0492 -40.0386
   -21.3134 -20.5358 -20.3456 -20.3388 -19.9875 -19.9811 -19.8055 -18.7277
   -18.7231 -18.3771 -18.3630 -18.3573 -18.2716 -18.2566 -18.0764 -18.0710
   -12.5111 -12.5016 -12.4094 -11.5829 -11.5779 -11.4316 -11.4177 -10.9271
   -10.9250  -9.9296  -9.9284  -9.6768  -9.3788  -9.3710  -9.2306  -9.2291
    -9.0432  -9.0413  -8.9083  -8.3235  -8.3227  -7.9038  -7.8991  -7.8633
    -7.8447  -7.7716  -7.5954  -7.5749  -7.1132  -7.0849  -6.9606  -6.8890
    -6.8869  -6.8432  -6.5316  -6.5300  -6.2585  -5.3292  -5.3102  -5.1440
    -5.0661  -4.7976  -4.7794  -4.7457  -4.6088  -4.5906  -4.3400  -4.3249
    -1.4559   0.4100   0.8857   1.0152   1.0803   1.1509   1.1755   1.3375
     1.4312   1.5113   1.5913   1.6519   1.7794   1.8228   1.8955   1.9249
     2.0320   2.0723   2.1311   2.1634   2.2211   2.3437

          k =-0.5000-0.8660 0.0000 ( 59292 PWs)   bands (ev):

   -68.6850 -68.6747 -40.3706 -40.2685 -40.1095 -40.0992 -40.0492 -40.0386
   -21.0516 -21.0448 -20.4696 -20.4638 -19.4286 -19.4225 -19.4107 -19.4070
   -18.9939 -18.9864 -18.3267 -18.3249 -18.3182 -18.3037 -17.7922 -17.7883
   -12.0728 -12.0704 -12.0659 -12.0571 -11.8798 -11.8748 -11.3309 -11.3279
   -10.2354 -10.2341 -10.1364 -10.1320 -10.1307 -10.1272  -8.5635  -8.5500
    -8.5484  -8.5468  -8.5409  -8.5382  -7.8654  -7.8636  -7.8619  -7.8592
    -7.8220  -7.8207  -7.7663  -7.7462  -7.4931  -7.4857  -6.6113  -6.6099
    -6.3341  -6.3106  -6.3059  -6.2855  -6.1921  -6.1865  -5.6956  -5.6915
    -5.5483  -5.5410  -4.7117  -4.7021  -4.6902  -4.6859  -3.8734  -3.8614
    -1.4144   0.1496   0.8592   1.0227   1.0994   1.1513   1.2550   1.3965
     1.4672   1.5378   1.5860   1.7041   1.7384   1.8875   1.9229   1.9348
     1.9974   2.0582   2.1894   2.2428   2.2962   2.3624

          k =-0.1667 0.2887 0.0000 ( 59267 PWs)   bands (ev):

   -68.6850 -68.6747 -40.3706 -40.2684 -40.1094 -40.0992 -40.0492 -40.0386
   -21.2469 -20.6615 -20.6548 -20.1084 -20.0923 -19.5886 -19.5813 -19.0991
   -18.6982 -18.6897 -18.4610 -18.4461 -18.1937 -18.0855 -18.0768 -17.8488
   -12.4858 -12.2106 -12.2001 -11.8228 -11.8188 -11.6602 -11.1934 -11.1898
   -10.3930 -10.3687 -10.1192 -10.1151  -9.5904  -9.5891  -8.8317  -8.8211
    -8.8181  -8.7688  -8.7618  -8.5975  -8.1984  -8.0302  -8.0101  -7.8318
    -7.8271  -7.4391  -7.4372  -7.2708  -7.2436  -7.2101  -7.2069  -6.9657
    -6.9525  -6.5469  -6.5338  -6.1550  -6.1537  -5.8585  -5.4191  -5.2766
    -5.2662  -5.2010  -4.9064  -4.8855  -4.4931  -4.3452  -4.3328  -3.9687
    -1.4466   0.3961   0.8661   1.0528   1.0999   1.1691   1.2588   1.3221
     1.4093   1.4949   1.5267   1.5712   1.6436   1.7233   1.8717   1.9940
     2.0472   2.1293   2.1490   2.1980   2.2619   2.3358

          k = 0.3333 0.0000 0.0000 ( 59267 PWs)   bands (ev):

   -68.6850 -68.6747 -40.3706 -40.2685 -40.1095 -40.0992 -40.0492 -40.0386
   -21.2465 -20.6858 -20.6304 -20.1085 -20.0907 -19.6129 -19.5589 -19.1011
   -18.7129 -18.6702 -18.4628 -18.4460 -18.1897 -18.1061 -18.0621 -17.8480
   -12.4849 -12.2117 -12.1993 -11.8321 -11.8121 -11.6583 -11.2110 -11.1723
   -10.3921 -10.3686 -10.1315 -10.1036  -9.5965  -9.5818  -8.8335  -8.8245
    -8.8106  -8.7896  -8.7422  -8.5983  -8.2002  -8.0771  -7.9628  -7.8304
    -7.8263  -7.4447  -7.4316  -7.2741  -7.2361  -7.2190  -7.1977  -6.9666
    -6.9531  -6.5957  -6.4905  -6.1576  -6.1503  -5.8638  -5.4190  -5.2926
    -5.2411  -5.2014  -4.9150  -4.8793  -4.4860  -4.3715  -4.3163  -3.9679
    -1.4320   0.2294   0.8956   1.0389   1.0990   1.1803   1.2249   1.4308
     1.4516   1.4958   1.5480   1.6245   1.7867   1.8629   1.8982   1.9295
     2.0277   2.0787   2.1534   2.1934   2.2829   2.3718

          k =-0.1667-0.4811 0.0000 ( 59291 PWs)   bands (ev):

   -68.6850 -68.6747 -40.3706 -40.2684 -40.1094 -40.0992 -40.0493 -40.0386
   -21.1166 -20.9120 -20.7229 -20.1607 -19.8042 -19.4663 -19.3164 -19.1746
   -19.0138 -18.7790 -18.6403 -18.5436 -18.1476 -18.0892 -17.9215 -17.7229
   -12.3500 -12.1151 -12.0460 -11.9076 -11.6824 -11.6596 -11.5539 -10.9427
   -10.8914 -10.6248 -10.5239  -9.8611  -9.6945  -9.3368  -9.1122  -8.6484
    -8.6242  -8.5539  -8.3901  -8.3578  -8.1626  -8.1094  -8.0648  -8.0511
    -7.6899  -7.6246  -7.4955  -7.4751  -7.3421  -7.1714  -7.0688  -6.8477
    -6.6225  -6.3768  -6.1641  -6.1588  -5.9606  -5.9296  -5.7846  -5.7329
    -5.4524  -5.3868  -5.1922  -5.0344  -4.4282  -4.3426  -4.0786  -3.7567
    -1.4373   0.3846   0.8396   1.0222   1.0600   1.1242   1.1847   1.2523
     1.3027   1.4547   1.5432   1.7403   1.7912   1.8295   1.8879   2.0838
     2.1297   2.1460   2.1769   2.2183   2.2821   2.3247

          k = 0.5000-0.0962 0.0000 ( 59291 PWs)   bands (ev):

   -68.6850 -68.6747 -40.3706 -40.2685 -40.1094 -40.0992 -40.0492 -40.0386
   -21.1138 -20.9197 -20.7179 -20.1591 -19.8043 -19.4678 -19.3227 -19.1695
   -19.0148 -18.7792 -18.6309 -18.5496 -18.1366 -18.1045 -17.9185 -17.7227
   -12.3483 -12.1158 -12.0440 -11.9120 -11.6951 -11.6448 -11.5559 -10.9436
   -10.8887 -10.6227 -10.5266  -9.8591  -9.6950  -9.3377  -9.1116  -8.6403
    -8.6249  -8.5518  -8.3946  -8.3811  -8.1606  -8.0945  -8.0775  -8.0392
    -7.6859  -7.6252  -7.4945  -7.4765  -7.3372  -7.1726  -7.0696  -6.8476
    -6.6229  -6.3819  -6.1789  -6.1583  -5.9491  -5.9291  -5.7838  -5.7346
    -5.4534  -5.3867  -5.1735  -5.0460  -4.4087  -4.3673  -4.0754  -3.7566
    -1.4145   0.1513   0.8540   1.0205   1.0922   1.1255   1.1913   1.2727
     1.3549   1.6085   1.7095   1.7536   1.8320   1.9070   1.9574   1.9912
     2.0651   2.1475   2.2098   2.2410   2.2923   2.3520

          k =-0.3333-0.3849 0.0000 ( 59291 PWs)   bands (ev):

   -68.6850 -68.6747 -40.3706 -40.2685 -40.1094 -40.0992 -40.0492 -40.0386
   -21.1148 -20.9170 -20.7198 -20.1589 -19.8061 -19.4662 -19.3178 -19.1727
   -19.0179 -18.7774 -18.6321 -18.5490 -18.1386 -18.1019 -17.9186 -17.7229
   -12.3494 -12.1131 -12.0468 -11.9103 -11.6838 -11.6577 -11.5549 -10.9433
   -10.8889 -10.6222 -10.5271  -9.8594  -9.6951  -9.3376  -9.1125  -8.6429
    -8.6234  -8.5535  -8.3917  -8.3727  -8.1622  -8.1002  -8.0646  -8.0535
    -7.6864  -7.6234  -7.5012  -7.4703  -7.3365  -7.1727  -7.0702  -6.8532
    -6.6210  -6.3770  -6.1660  -6.1604  -5.9575  -5.9279  -5.7840  -5.7428
    -5.4533  -5.3824  -5.1744  -5.0460  -4.4116  -4.3643  -4.0751  -3.7568
    -1.4222   0.2169   0.8463   1.0181   1.0760   1.1510   1.1977   1.2649
     1.3386   1.5181   1.6844   1.7724   1.8429   1.8791   1.9540   2.0260
     2.0622   2.0892   2.1752   2.2235   2.3023   2.3278

          k = 0.5000 0.0962 0.0000 ( 59291 PWs)   bands (ev):

   -68.6850 -68.6747 -40.3706 -40.2685 -40.1094 -40.0992 -40.0492 -40.0386
   -21.1138 -20.9197 -20.7179 -20.1591 -19.8043 -19.4678 -19.3227 -19.1695
   -19.0148 -18.7792 -18.6309 -18.5496 -18.1366 -18.1045 -17.9185 -17.7227
   -12.3483 -12.1158 -12.0440 -11.9120 -11.6951 -11.6448 -11.5559 -10.9436
   -10.8887 -10.6227 -10.5267  -9.8591  -9.6951  -9.3377  -9.1116  -8.6403
    -8.6249  -8.5519  -8.3946  -8.3811  -8.1606  -8.0945  -8.0774  -8.0392
    -7.6859  -7.6252  -7.4945  -7.4766  -7.3372  -7.1727  -7.0696  -6.8476
    -6.6228  -6.3819  -6.1789  -6.1582  -5.9491  -5.9290  -5.7839  -5.7346
    -5.4535  -5.3868  -5.1735  -5.0460  -4.4087  -4.3673  -4.0754  -3.7566
    -1.4145   0.1513   0.8540   1.0205   1.0922   1.1255   1.1913   1.2727
     1.3549   1.6085   1.7095   1.7535   1.8319   1.9070   1.9574   1.9913
     2.0650   2.1475   2.2096   2.2409   2.2903   2.3509

          k =-0.3333 0.3849 0.0000 ( 59291 PWs)   bands (ev):

   -68.6850 -68.6747 -40.3706 -40.2685 -40.1094 -40.0992 -40.0492 -40.0386
   -21.1148 -20.9170 -20.7198 -20.1589 -19.8061 -19.4662 -19.3178 -19.1727
   -19.0179 -18.7774 -18.6321 -18.5490 -18.1386 -18.1019 -17.9186 -17.7229
   -12.3494 -12.1131 -12.0468 -11.9103 -11.6839 -11.6577 -11.5549 -10.9433
   -10.8889 -10.6221 -10.5271  -9.8594  -9.6951  -9.3376  -9.1125  -8.6429
    -8.6235  -8.5535  -8.3917  -8.3727  -8.1622  -8.1002  -8.0646  -8.0534
    -7.6863  -7.6234  -7.5013  -7.4702  -7.3365  -7.1727  -7.0703  -6.8532
    -6.6211  -6.3770  -6.1660  -6.1604  -5.9575  -5.9280  -5.7840  -5.7428
    -5.4532  -5.3823  -5.1744  -5.0460  -4.4116  -4.3643  -4.0750  -3.7568
    -1.4222   0.2169   0.8463   1.0181   1.0760   1.1510   1.1977   1.2649
     1.3386   1.5181   1.6844   1.7724   1.8429   1.8791   1.9540   2.0260
     2.0622   2.0891   2.1753   2.2235   2.3022   2.3271

          k =-0.1667-0.0962 0.0000 ( 59226 PWs)   bands (ev):

   -68.6850 -68.6747 -40.3706 -40.2685 -40.1094 -40.0992 -40.0492 -40.0386
   -21.3134 -20.5358 -20.3456 -20.3388 -19.9875 -19.9812 -19.8055 -18.7277
   -18.7231 -18.3771 -18.3630 -18.3573 -18.2717 -18.2566 -18.0764 -18.0711
   -12.5111 -12.5016 -12.4093 -11.5829 -11.5779 -11.4316 -11.4177 -10.9271
   -10.9250  -9.9296  -9.9284  -9.6767  -9.3788  -9.3710  -9.2306  -9.2292
    -9.0432  -9.0414  -8.9083  -8.3235  -8.3227  -7.9038  -7.8990  -7.8633
    -7.8446  -7.7717  -7.5953  -7.5749  -7.1132  -7.0849  -6.9606  -6.8890
    -6.8868  -6.8432  -6.5316  -6.5299  -6.2586  -5.3292  -5.3102  -5.1439
    -5.0662  -4.7976  -4.7794  -4.7458  -4.6088  -4.5905  -4.3400  -4.3249
    -1.4559   0.4100   0.8857   1.0153   1.0803   1.1508   1.1755   1.3375
     1.4312   1.5113   1.5913   1.6519   1.7794   1.8228   1.8955   1.9248
     2.0321   2.0724   2.1312   2.1634   2.2212   2.3426

          k =-0.0000-0.1925 0.0000 ( 59226 PWs)   bands (ev):

   -68.6850 -68.6747 -40.3706 -40.2684 -40.1095 -40.0992 -40.0492 -40.0386
   -21.3135 -20.5307 -20.3572 -20.3359 -19.9889 -19.9724 -19.8092 -18.7327
   -18.7143 -18.3995 -18.3651 -18.3510 -18.2552 -18.2537 -18.0845 -18.0680
   -12.5124 -12.5011 -12.4086 -11.5874 -11.5744 -11.4304 -11.4166 -10.9294
   -10.9243  -9.9327  -9.9255  -9.6769  -9.3792  -9.3689  -9.2320  -9.2286
    -9.0427  -9.0424  -8.9088  -8.3257  -8.3198  -7.9042  -7.8984  -7.8518
    -7.8401  -7.7733  -7.6175  -7.5785  -7.1022  -7.0751  -6.9591  -6.8927
    -6.8847  -6.8528  -6.5347  -6.5261  -6.2592  -5.3307  -5.3009  -5.1442
    -5.0659  -4.8369  -4.7749  -4.7386  -4.5905  -4.5814  -4.3495  -4.3229
    -1.4628   0.5359   0.8644   0.9969   1.0853   1.1442   1.1788   1.3158
     1.3726   1.4706   1.5261   1.5984   1.7448   1.8230   1.8889   1.9782
     2.0430   2.0720   2.1216   2.1734   2.2243   2.2984

          k = 0.5000-0.8660 0.0000 ( 59292 PWs)   bands (ev):

   -68.6850 -68.6747 -40.3706 -40.2685 -40.1095 -40.0992 -40.0492 -40.0386
   -21.0516 -21.0448 -20.4696 -20.4638 -19.4286 -19.4226 -19.4107 -19.4069
   -18.9940 -18.9863 -18.3267 -18.3249 -18.3182 -18.3036 -17.7922 -17.7883
   -12.0728 -12.0704 -12.0660 -12.0570 -11.8798 -11.8748 -11.3309 -11.3278
   -10.2354 -10.2341 -10.1364 -10.1320 -10.1307 -10.1272  -8.5635  -8.5501
    -8.5485  -8.5467  -8.5408  -8.5381  -7.8654  -7.8636  -7.8619  -7.8592
    -7.8221  -7.8207  -7.7663  -7.7462  -7.4932  -7.4857  -6.6113  -6.6098
    -6.3341  -6.3106  -6.3059  -6.2854  -6.1921  -6.1863  -5.6956  -5.6915
    -5.5484  -5.5410  -4.7117  -4.7021  -4.6901  -4.6859  -3.8735  -3.8614
    -1.4144   0.1496   0.8592   1.0227   1.0994   1.1513   1.2550   1.3965
     1.4672   1.5378   1.5859   1.7041   1.7384   1.8875   1.9228   1.9350
     1.9975   2.0582   2.1891   2.2437   2.2963   2.3585

          k =-1.0000 0.0000 0.0000 ( 59292 PWs)   bands (ev):

   -68.6850 -68.6747 -40.3706 -40.2685 -40.1095 -40.0992 -40.0492 -40.0386
   -21.0746 -21.0190 -20.4790 -20.4590 -19.4400 -19.4092 -19.4087 -19.4048
   -19.0128 -18.9699 -18.3718 -18.3282 -18.2930 -18.2806 -17.7996 -17.7827
   -12.1103 -12.0749 -12.0452 -12.0324 -11.8855 -11.8695 -11.3512 -11.3091
   -10.2497 -10.2352 -10.1343 -10.1328 -10.1245 -10.1214  -8.6053  -8.5781
    -8.5571  -8.5276  -8.5184  -8.4888  -7.8804  -7.8740  -7.8609  -7.8531
    -7.8137  -7.8131  -7.7798  -7.7454  -7.5153  -7.4659  -6.6155  -6.6030
    -6.3469  -6.3001  -6.2929  -6.2804  -6.2093  -6.1719  -5.7220  -5.6705
    -5.5670  -5.5226  -4.7923  -4.6989  -4.6640  -4.6378  -3.8814  -3.8550
    -1.4445   0.5020   0.8433   1.0281   1.0511   1.1720   1.1999   1.2606
     1.3308   1.3513   1.6162   1.6375   1.6802   1.7928   1.8008   1.8781
     2.1214   2.1575   2.1714   2.2105   2.3162   2.3333

     the Fermi energy is    -1.1557 ev

!    total energy              =   -1133.82904225 Ry

     total all-electron energy =     -6753.504745 Ry
     estimated scf accuracy    <       0.00000005 Ry
     smearing contrib. (-TS)   =      -0.00000000 Ry
     internal energy E=F+TS    =   -1133.82904225 Ry

     The total energy is F=E-TS. E is the sum of the following terms:
     one-electron contribution =   -3953.79408470 Ry
     hartree contribution      =    2005.07619075 Ry
     xc contribution           =    -186.02220407 Ry
     ewald contribution        =    1360.28847434 Ry
     DFT-D3 Dispersion         =      -0.13429045 Ry
     one-center paw contrib.   =    -359.24312811 Ry

     total magnetization       =    10.00 Bohr mag/cell
     absolute magnetization    =    10.01 Bohr mag/cell

     convergence has been achieved in  14 iterations

     Writing output data file ./mytmp/Crdimer0.1405-0.4.save/
 
     init_run     :     18.56s CPU     19.81s WALL (       1 calls)
     electrons    :    487.04s CPU    520.61s WALL (       1 calls)

     Called by init_run:
     wfcinit      :     13.82s CPU     14.65s WALL (       1 calls)
     potinit      :      1.51s CPU      1.58s WALL (       1 calls)
     hinit0       :      1.52s CPU      1.58s WALL (       1 calls)

     Called by electrons:
     c_bands      :    390.26s CPU    414.77s WALL (      14 calls)
     sum_band     :     74.81s CPU     80.54s WALL (      14 calls)
     v_of_rho     :      4.59s CPU      4.92s WALL (      15 calls)
     newd         :      9.37s CPU     12.47s WALL (      15 calls)
     PAW_pot      :      7.30s CPU      7.39s WALL (      15 calls)
     mix_rho      :      1.00s CPU      1.00s WALL (      14 calls)

     Called by c_bands:
     init_us_2    :      5.04s CPU      5.09s WALL (     870 calls)
     cegterg      :    377.82s CPU    402.23s WALL (     420 calls)

     Called by *egterg:
     cdiaghg      :     24.46s CPU     38.79s WALL (    2645 calls)
     h_psi        :    244.54s CPU    253.90s WALL (    2675 calls)
     s_psi        :     27.14s CPU     27.26s WALL (    2675 calls)
     g_psi        :      0.73s CPU      0.75s WALL (    2225 calls)

     Called by h_psi:
     h_psi:calbec :     27.88s CPU     28.55s WALL (    2675 calls)
     vloc_psi     :    187.27s CPU    195.75s WALL (    2675 calls)
     add_vuspsi   :     27.20s CPU     27.40s WALL (    2675 calls)

     General routines
     calbec       :     37.23s CPU     38.07s WALL (    3095 calls)
     fft          :      3.85s CPU      4.37s WALL (     369 calls)
     ffts         :      0.11s CPU      0.12s WALL (      58 calls)
     fftw         :    192.76s CPU    201.63s WALL (  251530 calls)
     interpolate  :      0.40s CPU      0.44s WALL (      30 calls)
 
     Parallel routines
     fft_scatt_xy :     30.74s CPU     32.00s WALL (  251957 calls)
     fft_scatt_yz :     74.67s CPU     79.03s WALL (  251957 calls)
 
     PWSCF        :   8m27.68s CPU   9m 4.50s WALL

 
   This run was terminated on:  11:42: 5   2Apr2021            

=------------------------------------------------------------------------------=
   JOB DONE.
=------------------------------------------------------------------------------=
