
     Program PWSCF v.6.7MaX starts on  2Apr2021 at 13:50:22 

     This program is part of the open-source Quantum ESPRESSO suite
     for quantum simulation of materials; please cite
         "P. Giannozzi et al., J. Phys.:Condens. Matter 21 395502 (2009);
         "P. Giannozzi et al., J. Phys.:Condens. Matter 29 465901 (2017);
          URL http://www.quantum-espresso.org", 
     in publications or presentations arising from this work. More details at
     http://www.quantum-espresso.org/quote

     Parallel version (MPI), running on    48 processors

     MPI processes distributed on     1 nodes
     R & G space division:  proc/nbgrp/npool/nimage =      48
     Reading input from Crdimer0.1425-0.1.scf.in

     Current dimensions of program PWSCF are:
     Max number of different atomic species (ntypx) = 10
     Max number of k-points (npk) =  40000
     Max angular momentum in pseudopotentials (lmaxx) =  3
     file N.pbe-n-kjpaw_psl.1.0.0.UPF: wavefunction(s)  2S renormalized
     file Cr.pbe-spn-kjpaw_psl.1.0.0.UPF: wavefunction(s)  3S 3P 3D renormalized
     file Cr.pbe-spn-kjpaw_psl.1.0.0.UPF: wavefunction(s)  3S 3P 3D renormalized

     --------------------------------------------
     Parameters for DFT-D3 Dispersion Correction:
     --------------------------------------------
       Reference C6 values for interpolation: 

         atom   Coordination number   C6
         B          0.000           214.36
         B          0.971           150.74
         B          1.944           106.23
         B          2.913            62.89
         B          4.586            56.06
         N          0.000            50.54
         N          0.994            44.25
         N          2.014            39.35
         N          2.990            31.16
         Cr1        0.000          1381.48
         Cr1        1.827           571.38
         Cr1       10.619           306.69
         Cr2        0.000          1381.48
         Cr2        1.827           571.38
         Cr2       10.619           306.69

       Values used:

         atom   Coordination number  R0_AB[au]  C6      C8
         B          3.337            3.039     62.89   2505.96
         B          3.335            3.039     62.89   2506.00
         B          3.356            3.039     62.88   2505.48
         B          3.336            3.039     62.89   2505.99
         B          3.354            3.039     62.88   2505.53
         B          3.336            3.039     62.89   2505.98
         N          3.134            2.478     31.22    688.70
         N          3.134            2.478     31.22    688.70
         N          3.167            2.478     31.21    688.42
         N          3.136            2.478     31.22    688.67
         N          3.138            2.478     31.22    688.66
         N          3.134            2.478     31.22    688.70
         N          3.137            2.478     31.22    688.67
         N          3.134            2.478     31.22    688.70
         N          3.137            2.478     31.22    688.67
         B          3.336            3.039     62.89   2506.00
         B          3.335            3.039     62.89   2506.00
         B          3.336            3.039     62.89   2505.98
         B          3.354            3.039     62.88   2505.53
         B          3.337            3.039     62.89   2505.96
         B          3.336            3.039     62.89   2506.00
         N          3.137            2.478     31.22    688.67
         B          3.335            3.039     62.89   2506.01
         B          3.336            3.039     62.89   2505.99
         B          3.351            3.039     62.88   2505.60
         N          3.134            2.478     31.22    688.70
         N          3.134            2.478     31.22    688.70
         N          3.136            2.478     31.22    688.68
         N          3.136            2.478     31.22    688.68
         N          3.167            2.478     31.21    688.42
         N          3.136            2.478     31.22    688.67
         B          3.351            3.039     62.88   2505.60
         Cr1        0.708            3.252   1332.93 123014.04
         Cr2        0.708            3.252   1332.93 123014.04

         Molecular C6 ( Ry / a.u.^6 ) =     78607.44


     Subspace diagonalization in iterative solution of the eigenvalue problem:
     one sub-group per band group will be used
     scalapack distributed-memory algorithm (size of sub-group:  6*  6 procs)

 
     Parallelization info
     --------------------
     sticks:   dense  smooth     PW     G-vecs:    dense   smooth      PW
     Min         235      98     26                36277     9874    1408
     Max         236      99     27                36282     9883    1425
     Sum       11311    4741   1285              1741401   474235   68095
 


     bravais-lattice index     =            4
     lattice parameter (alat)  =      18.9275  a.u.
     unit-cell volume          =   10553.3021 (a.u.)^3
     number of atoms/cell      =           34
     number of atomic types    =            4
     number of electrons       =       156.00
     number of Kohn-Sham states=           94
     kinetic-energy cutoff     =      48.0000  Ry
     charge density cutoff     =     457.0000  Ry
     scf convergence threshold =      1.0E-07
     mixing beta               =       0.5000
     number of iterations used =            8  plain     mixing
     Exchange-correlation= SLA  PW   PBX  PBC
                           (   1   4   3   4   0   0   0)

     celldm(1)=  18.927497  celldm(2)=   0.000000  celldm(3)=   1.797125
     celldm(4)=   0.000000  celldm(5)=   0.000000  celldm(6)=   0.000000

     crystal axes: (cart. coord. in units of alat)
               a(1) = (   1.000000   0.000000   0.000000 )  
               a(2) = (  -0.500000   0.866025   0.000000 )  
               a(3) = (   0.000000   0.000000   1.797125 )  

     reciprocal axes: (cart. coord. in units 2 pi/alat)
               b(1) = (  1.000000  0.577350  0.000000 )  
               b(2) = (  0.000000  1.154701  0.000000 )  
               b(3) = (  0.000000  0.000000  0.556444 )  


     PseudoPot. # 1 for B  read from file:
     /home/sf05/q-e-qe-6.7MaX-Release/pseudo/B.pbe-n-kjpaw_psl.1.0.0.UPF
     MD5 check sum: d9c678ba5d3b2fd7b74e61139c9288d8
     Pseudo is Projector augmented-wave + core cor, Zval =  3.0
     Generated using "atomic" code by A. Dal Corso  v.5.1.2
     Shape of augmentation charge: PSQ
     Using radial grid of 1059 points,  4 beta functions with: 
                l(1) =   0
                l(2) =   0
                l(3) =   1
                l(4) =   1
     Q(r) pseudized with 0 coefficients 


     PseudoPot. # 2 for N  read from file:
     /home/sf05/q-e-qe-6.7MaX-Release/pseudo/N.pbe-n-kjpaw_psl.1.0.0.UPF
     MD5 check sum: e0e4e94a9c4025c5b51bd7d8793849bd
     Pseudo is Projector augmented-wave + core cor, Zval =  5.0
     Generated using "atomic" code by A. Dal Corso  v.5.1.2
     Shape of augmentation charge: PSQ
     Using radial grid of 1085 points,  4 beta functions with: 
                l(1) =   0
                l(2) =   0
                l(3) =   1
                l(4) =   1
     Q(r) pseudized with 0 coefficients 


     PseudoPot. # 3 for Cr read from file:
     /home/sf05/q-e-qe-6.7MaX-Release/pseudo/Cr.pbe-spn-kjpaw_psl.1.0.0.UPF
     MD5 check sum: 198f1a2427a48552563eee314eba32ba
     Pseudo is Projector augmented-wave + core cor, Zval = 14.0
     Generated using &quot;atomic&quot; code by A. Dal Corso  v.6.3
     Shape of augmentation charge: PSQ
     Using radial grid of 1183 points,  6 beta functions with: 
                l(1) =   0
                l(2) =   0
                l(3) =   1
                l(4) =   1
                l(5) =   2
                l(6) =   2
     Q(r) pseudized with 0 coefficients 


     PseudoPot. # 4 for Cr read from file:
     /home/sf05/q-e-qe-6.7MaX-Release/pseudo/Cr.pbe-spn-kjpaw_psl.1.0.0.UPF
     MD5 check sum: 198f1a2427a48552563eee314eba32ba
     Pseudo is Projector augmented-wave + core cor, Zval = 14.0
     Generated using &quot;atomic&quot; code by A. Dal Corso  v.6.3
     Shape of augmentation charge: PSQ
     Using radial grid of 1183 points,  6 beta functions with: 
                l(1) =   0
                l(2) =   0
                l(3) =   1
                l(4) =   1
                l(5) =   2
                l(6) =   2
     Q(r) pseudized with 0 coefficients 


     atomic species   valence    mass     pseudopotential
        B              3.00    10.81100     B ( 1.00)
        N              5.00    14.00674     N ( 1.00)
        Cr1           14.00    51.99610     Cr( 1.00)
        Cr2           14.00    51.99610     Cr( 1.00)

     Starting magnetic structure 
     atomic species   magnetization
        B            0.000
        N            0.000
        Cr1          1.000
        Cr2          1.000

     No symmetry found



   Cartesian axes

     site n.     atom                  positions (alat units)
         1           B   tau(   1) = (  -0.1250000   0.2165064   0.8985623  )
         2           B   tau(   2) = (   0.3750000   0.6495191   0.8985623  )
         3           B   tau(   3) = (   0.2500000   0.0000000   0.8985623  )
         4           B   tau(   4) = (   0.7500000   0.0000000   0.8985623  )
         5           B   tau(   5) = (   0.1250000   0.2165064   0.8985623  )
         6           B   tau(   6) = (  -0.3750000   0.6495191   0.8985623  )
         7           N   tau(   7) = (   0.7500005   0.2886748   0.8985623  )
         8           N   tau(   8) = (   0.3750005   0.5051812   0.8985623  )
         9           N   tau(   9) = (   0.3750005   0.0721685   0.8985623  )
        10           N   tau(  10) = (   0.6250005   0.0721685   0.8985623  )
        11           N   tau(  11) = (   0.2500005   0.2886748   0.8985623  )
        12           N   tau(  12) = (   0.6250005   0.5051812   0.8985623  )
        13           N   tau(  13) = (   0.0000005   0.2886748   0.8985623  )
        14           N   tau(  14) = (   0.2500005   0.7216875   0.8985623  )
        15           N   tau(  15) = (  -0.2499995   0.7216875   0.8985623  )
        16           B   tau(  16) = (   0.0000000   0.4330127   0.8985623  )
        17           B   tau(  17) = (   0.1250000   0.6495191   0.8985623  )
        18           B   tau(  18) = (  -0.1250000   0.6495191   0.8985623  )
        19           B   tau(  19) = (   0.3750000   0.2165064   0.8985623  )
        20           B   tau(  20) = (   0.6250000   0.2165064   0.8985623  )
        21           B   tau(  21) = (   0.5000000   0.4330127   0.8985623  )
        22           N   tau(  22) = (   0.5000005   0.2886748   0.8985623  )
        23           B   tau(  23) = (  -0.2500000   0.4330127   0.8985623  )
        24           B   tau(  24) = (   0.2500000   0.4330127   0.8985623  )
        25           B   tau(  25) = (   0.5000000   0.0000000   0.8985623  )
        26           N   tau(  26) = (  -0.1249995   0.5051812   0.8985623  )
        27           N   tau(  27) = (   0.1250005   0.5051812   0.8985623  )
        28           N   tau(  28) = (   0.0000005   0.7216875   0.8985623  )
        29           N   tau(  29) = (   0.5000005   0.7216875   0.8985623  )
        30           N   tau(  30) = (   0.1250005   0.0721685   0.8985623  )
        31           N   tau(  31) = (   0.8750005   0.0721685   0.8985623  )
        32           B   tau(  32) = (   0.0000000   0.0000000   0.8985623  )
        33           Cr1 tau(  33) = (   0.3925000   0.0866025   1.2040735  )
        34           Cr2 tau(  34) = (   0.1075000   0.0866025   1.2040735  )

     number of k points=    15  Gaussian smearing, width (Ry)=  0.0000
                       cart. coord. in units 2pi/alat
        k(    1) = (   0.1666667   0.2886751   0.0000000), wk =   0.0740741
        k(    2) = (   0.1666667  -0.4811252   0.0000000), wk =   0.0740741
        k(    3) = (   0.1666667  -0.0962250   0.0000000), wk =   0.0740741
        k(    4) = (  -0.5000000  -0.8660254   0.0000000), wk =   0.0370370
        k(    5) = (  -0.1666667   0.2886751   0.0000000), wk =   0.0740741
        k(    6) = (   0.3333333   0.0000000   0.0000000), wk =   0.0740741
        k(    7) = (  -0.1666667  -0.4811252   0.0000000), wk =   0.0740741
        k(    8) = (   0.5000000  -0.0962250   0.0000000), wk =   0.0740741
        k(    9) = (  -0.3333333  -0.3849002   0.0000000), wk =   0.0740741
        k(   10) = (   0.5000000   0.0962250   0.0000000), wk =   0.0740741
        k(   11) = (  -0.3333333   0.3849002   0.0000000), wk =   0.0740741
        k(   12) = (  -0.1666667  -0.0962250   0.0000000), wk =   0.0740741
        k(   13) = (  -0.0000000  -0.1924501   0.0000000), wk =   0.0740741
        k(   14) = (   0.5000000  -0.8660254   0.0000000), wk =   0.0370370
        k(   15) = (  -1.0000000   0.0000000   0.0000000), wk =   0.0370370

     Dense  grid:  1741401 G-vectors     FFT dimensions: ( 135, 135, 240)

     Smooth grid:   474235 G-vectors     FFT dimensions: (  90,  90, 160)

     Estimated max dynamical RAM per process >     218.62 MB

     Estimated total dynamical RAM >      10.25 GB
     Generating pointlists ...
     new r_m :   0.0595 (alat units)  1.1269 (a.u.) for type    1
     new r_m :   0.0595 (alat units)  1.1269 (a.u.) for type    2
     new r_m :   0.1176 (alat units)  2.2252 (a.u.) for type    3
     new r_m :   0.1176 (alat units)  2.2252 (a.u.) for type    4

     Initial potential from superposition of free atoms

     starting charge  155.99382, renormalised to  156.00000

     negative rho (up, down):  6.707E-03 4.655E-04
     Starting wfcs are  148 randomized atomic wfcs
     Checking if some PAW data can be deallocated... 

     total cpu time spent up to now is       20.6 secs

     Self-consistent Calculation

     iteration #  1     ecut=    48.00 Ry     beta= 0.50
     Davidson diagonalization with overlap
     ethr =  1.00E-02,  avg # of iterations =  2.8

     negative rho (up, down):  4.889E-03 2.907E-03

     total cpu time spent up to now is       63.1 secs

     total energy              =   -1130.74106803 Ry
     estimated scf accuracy    <      11.35541960 Ry

     total magnetization       =    12.00 Bohr mag/cell
     absolute magnetization    =    12.16 Bohr mag/cell

     iteration #  2     ecut=    48.00 Ry     beta= 0.50
     Davidson diagonalization with overlap
     ethr =  7.28E-03,  avg # of iterations =  2.7

     negative rho (up, down):  1.079E-02 1.012E-02

     total cpu time spent up to now is      103.4 secs

     total energy              =   -1132.49651932 Ry
     estimated scf accuracy    <       4.80212208 Ry

     total magnetization       =     9.11 Bohr mag/cell
     absolute magnetization    =     9.54 Bohr mag/cell

     iteration #  3     ecut=    48.00 Ry     beta= 0.50
     Davidson diagonalization with overlap
     ethr =  3.08E-03,  avg # of iterations =  7.5

     negative rho (up, down):  7.160E-03 7.134E-03

     total cpu time spent up to now is      148.2 secs

     total energy              =   -1133.50054363 Ry
     estimated scf accuracy    <       1.37671413 Ry

     total magnetization       =    10.00 Bohr mag/cell
     absolute magnetization    =    10.20 Bohr mag/cell

     iteration #  4     ecut=    48.00 Ry     beta= 0.50
     Davidson diagonalization with overlap
     ethr =  8.83E-04,  avg # of iterations =  5.5

     negative rho (up, down):  6.434E-03 5.786E-03

     total cpu time spent up to now is      186.0 secs

     total energy              =   -1133.80633873 Ry
     estimated scf accuracy    <       0.26667227 Ry

     total magnetization       =    10.00 Bohr mag/cell
     absolute magnetization    =    10.06 Bohr mag/cell

     iteration #  5     ecut=    48.00 Ry     beta= 0.50
     Davidson diagonalization with overlap
     ethr =  1.71E-04,  avg # of iterations = 10.3

     negative rho (up, down):  4.017E-03 3.963E-03

     total cpu time spent up to now is      230.2 secs

     total energy              =   -1133.78519090 Ry
     estimated scf accuracy    <       0.26005607 Ry

     total magnetization       =    10.00 Bohr mag/cell
     absolute magnetization    =    10.02 Bohr mag/cell

     iteration #  6     ecut=    48.00 Ry     beta= 0.50
     Davidson diagonalization with overlap
     ethr =  1.67E-04,  avg # of iterations =  5.8

     negative rho (up, down):  3.537E-03 3.927E-03

     total cpu time spent up to now is      269.7 secs

     total energy              =   -1133.81456444 Ry
     estimated scf accuracy    <       0.10366209 Ry

     total magnetization       =    10.00 Bohr mag/cell
     absolute magnetization    =    10.02 Bohr mag/cell

     iteration #  7     ecut=    48.00 Ry     beta= 0.50
     Davidson diagonalization with overlap
     ethr =  6.65E-05,  avg # of iterations =  5.7

     negative rho (up, down):  3.260E-03 3.766E-03

     total cpu time spent up to now is      309.0 secs

     total energy              =   -1133.82560436 Ry
     estimated scf accuracy    <       0.01897136 Ry

     total magnetization       =    10.00 Bohr mag/cell
     absolute magnetization    =    10.02 Bohr mag/cell

     iteration #  8     ecut=    48.00 Ry     beta= 0.50
     Davidson diagonalization with overlap
     ethr =  1.22E-05,  avg # of iterations =  6.5

     negative rho (up, down):  3.146E-03 3.767E-03

     total cpu time spent up to now is      346.8 secs

     total energy              =   -1133.82754428 Ry
     estimated scf accuracy    <       0.00104733 Ry

     total magnetization       =    10.00 Bohr mag/cell
     absolute magnetization    =    10.02 Bohr mag/cell

     iteration #  9     ecut=    48.00 Ry     beta= 0.50
     Davidson diagonalization with overlap
     c_bands:  2 eigenvalues not converged
     c_bands:  2 eigenvalues not converged
     c_bands:  1 eigenvalues not converged
     ethr =  6.71E-07,  avg # of iterations = 10.6

     negative rho (up, down):  3.118E-03 3.781E-03

     total cpu time spent up to now is      398.7 secs

     total energy              =   -1133.82782517 Ry
     estimated scf accuracy    <       0.00018709 Ry

     total magnetization       =    10.00 Bohr mag/cell
     absolute magnetization    =    10.01 Bohr mag/cell

     iteration # 10     ecut=    48.00 Ry     beta= 0.50
     Davidson diagonalization with overlap
     ethr =  1.20E-07,  avg # of iterations =  2.8

     negative rho (up, down):  3.107E-03 3.785E-03

     total cpu time spent up to now is      434.6 secs

     total energy              =   -1133.82786590 Ry
     estimated scf accuracy    <       0.00007449 Ry

     total magnetization       =    10.00 Bohr mag/cell
     absolute magnetization    =    10.01 Bohr mag/cell

     iteration # 11     ecut=    48.00 Ry     beta= 0.50
     Davidson diagonalization with overlap
     ethr =  4.77E-08,  avg # of iterations =  2.8

     negative rho (up, down):  3.103E-03 3.792E-03

     total cpu time spent up to now is      468.5 secs

     total energy              =   -1133.82788295 Ry
     estimated scf accuracy    <       0.00001021 Ry

     total magnetization       =    10.00 Bohr mag/cell
     absolute magnetization    =    10.01 Bohr mag/cell

     iteration # 12     ecut=    48.00 Ry     beta= 0.50
     Davidson diagonalization with overlap
     ethr =  6.55E-09,  avg # of iterations =  4.9

     negative rho (up, down):  3.100E-03 3.794E-03

     total cpu time spent up to now is      506.4 secs

     total energy              =   -1133.82788766 Ry
     estimated scf accuracy    <       0.00000128 Ry

     total magnetization       =    10.00 Bohr mag/cell
     absolute magnetization    =    10.01 Bohr mag/cell

     iteration # 13     ecut=    48.00 Ry     beta= 0.50
     Davidson diagonalization with overlap
     ethr =  8.19E-10,  avg # of iterations =  3.9

     negative rho (up, down):  3.099E-03 3.796E-03

     total cpu time spent up to now is      543.1 secs

     total energy              =   -1133.82788866 Ry
     estimated scf accuracy    <       0.00000032 Ry

     total magnetization       =    10.00 Bohr mag/cell
     absolute magnetization    =    10.01 Bohr mag/cell

     iteration # 14     ecut=    48.00 Ry     beta= 0.50
     Davidson diagonalization with overlap
     ethr =  2.04E-10,  avg # of iterations =  4.0

     negative rho (up, down):  3.098E-03 3.797E-03
 
     Magnetic moment per site:
     atom:    1    charge:    0.8807    magn:    0.0001    constr:    0.0000
     atom:    2    charge:    0.8804    magn:    0.0001    constr:    0.0000
     atom:    3    charge:    0.8792    magn:    0.0008    constr:    0.0000
     atom:    4    charge:    0.8807    magn:    0.0002    constr:    0.0000
     atom:    5    charge:    0.8801    magn:    0.0004    constr:    0.0000
     atom:    6    charge:    0.8801    magn:    0.0002    constr:    0.0000
     atom:    7    charge:    2.8611    magn:    0.0001    constr:    0.0000
     atom:    8    charge:    2.8609    magn:    0.0003    constr:    0.0000
     atom:    9    charge:    2.8611    magn:    0.0073    constr:    0.0000
     atom:   10    charge:    2.8609    magn:    0.0015    constr:    0.0000
     atom:   11    charge:    2.8605    magn:    0.0031    constr:    0.0000
     atom:   12    charge:    2.8609    magn:    0.0001    constr:    0.0000
     atom:   13    charge:    2.8598    magn:    0.0023    constr:    0.0000
     atom:   14    charge:    2.8599    magn:    0.0004    constr:    0.0000
     atom:   15    charge:    2.8596    magn:    0.0019    constr:    0.0000
     atom:   16    charge:    0.8800    magn:    0.0002    constr:    0.0000
     atom:   17    charge:    0.8801    magn:    0.0001    constr:    0.0000
     atom:   18    charge:    0.8798    magn:    0.0002    constr:    0.0000
     atom:   19    charge:    0.8795    magn:    0.0004    constr:    0.0000
     atom:   20    charge:    0.8801    magn:    0.0001    constr:    0.0000
     atom:   21    charge:    0.8797    magn:    0.0002    constr:    0.0000
     atom:   22    charge:    2.8611    magn:    0.0022    constr:    0.0000
     atom:   23    charge:    0.8799    magn:    0.0001    constr:    0.0000
     atom:   24    charge:    0.8797    magn:    0.0002    constr:    0.0000
     atom:   25    charge:    0.8804    magn:    0.0002    constr:    0.0000
     atom:   26    charge:    2.8598    magn:    0.0001    constr:    0.0000
     atom:   27    charge:    2.8598    magn:    0.0003    constr:    0.0000
     atom:   28    charge:    2.8596    magn:    0.0019    constr:    0.0000
     atom:   29    charge:    2.8594    magn:    0.0019    constr:    0.0000
     atom:   30    charge:    2.8598    magn:    0.0073    constr:    0.0000
     atom:   31    charge:    2.8596    magn:    0.0015    constr:    0.0000
     atom:   32    charge:    0.8807    magn:    0.0002    constr:    0.0000
     atom:   33    charge:   12.5374    magn:    4.2491    constr:    0.0000
     atom:   34    charge:   12.5373    magn:    4.2491    constr:    0.0000

     total cpu time spent up to now is      579.7 secs

     End of self-consistent calculation

 ------ SPIN UP ------------


          k = 0.1667 0.2887 0.0000 ( 59267 PWs)   bands (ev):

   -72.8826 -72.8751 -44.4294 -44.3544 -44.2918 -44.2845 -44.2505 -44.2432
   -21.2536 -20.6670 -20.6623 -20.1096 -20.1045 -19.5924 -19.5903 -19.1058
   -18.7057 -18.6977 -18.4618 -18.4587 -18.2018 -18.0911 -18.0830 -17.8557
   -12.4905 -12.2111 -12.2091 -11.8264 -11.8238 -11.6646 -11.1977 -11.1953
   -10.3978 -10.3741 -10.1233 -10.1210  -9.5954  -9.5942  -8.8439  -8.8320
    -8.8301  -8.7716  -8.7685  -8.6023  -8.2030  -8.0622  -8.0190  -7.8359
    -7.8332  -7.4451  -7.4429  -7.2880  -7.2671  -7.2142  -7.2128  -6.9648
    -6.9631  -6.5752  -6.5412  -6.1603  -6.1589  -5.8785  -5.4247  -5.3111
    -5.2770  -5.2063  -4.9174  -4.9080  -4.5148  -4.3624  -4.3429  -3.9857
    -2.8641  -2.0306  -2.0147  -1.8285  -1.6518  -1.5617  -1.4971  -1.4879
    -1.3849  -1.3627  -1.2918  -0.7480   0.6419   0.8332   1.0938   1.1942
     1.2781   1.4566   1.5166   1.5748   1.6200   1.7882

          k = 0.1667-0.4811 0.0000 ( 59291 PWs)   bands (ev):

   -72.8826 -72.8751 -44.4294 -44.3544 -44.2918 -44.2846 -44.2505 -44.2432
   -21.1240 -20.9173 -20.7296 -20.1677 -19.8109 -19.4724 -19.3237 -19.1814
   -19.0202 -18.7843 -18.6515 -18.5485 -18.1573 -18.0926 -17.9283 -17.7301
   -12.3550 -12.1198 -12.0504 -11.9116 -11.6863 -11.6649 -11.5583 -10.9478
   -10.8968 -10.6300 -10.5282  -9.8669  -9.6993  -9.3421  -9.1171  -8.6773
    -8.6295  -8.5595  -8.3946  -8.3720  -8.1676  -8.1295  -8.0692  -8.0560
    -7.6960  -7.6294  -7.5006  -7.4798  -7.3640  -7.1765  -7.0737  -6.8681
    -6.6284  -6.3946  -6.1867  -6.1641  -5.9788  -5.9354  -5.7900  -5.7507
    -5.4572  -5.4019  -5.2238  -5.0442  -4.4552  -4.3486  -4.0955  -3.7741
    -2.8613  -2.0311  -2.0143  -1.8251  -1.6503  -1.5614  -1.4994  -1.4897
    -1.3850  -1.3627  -1.2923  -0.7513   0.5608   0.8378   1.0730   1.1369
     1.2078   1.2630   1.3975   1.8352   1.9263   2.1043

          k = 0.1667-0.0962 0.0000 ( 59226 PWs)   bands (ev):

   -72.8826 -72.8751 -44.4294 -44.3544 -44.2918 -44.2845 -44.2505 -44.2431
   -21.3199 -20.5432 -20.3547 -20.3414 -19.9990 -19.9839 -19.8111 -18.7409
   -18.7253 -18.3829 -18.3756 -18.3600 -18.2724 -18.2701 -18.0849 -18.0744
   -12.5119 -12.5101 -12.4139 -11.5893 -11.5803 -11.4304 -11.4287 -10.9329
   -10.9287  -9.9370  -9.9308  -9.6820  -9.3816  -9.3783  -9.2365  -9.2331
    -9.0484  -9.0462  -8.9312  -8.3311  -8.3261  -7.9083  -7.9057  -7.8903
    -7.8512  -7.7764  -7.6196  -7.5830  -7.1489  -7.0928  -6.9659  -6.8953
    -6.8903  -6.8554  -6.5390  -6.5328  -6.2637  -5.3691  -5.3167  -5.1494
    -5.0716  -4.8236  -4.8069  -4.7525  -4.6196  -4.6108  -4.3607  -4.3324
    -2.8671  -2.0301  -2.0152  -1.8318  -1.6544  -1.5619  -1.4950  -1.4862
    -1.3848  -1.3628  -1.2914  -0.7445   0.7319   0.8089   1.0526   1.2058
     1.2908   1.3405   1.5700   1.5851   1.7208   1.9042

          k =-0.5000-0.8660 0.0000 ( 59292 PWs)   bands (ev):

   -72.8826 -72.8751 -44.4294 -44.3544 -44.2919 -44.2846 -44.2505 -44.2432
   -21.0564 -21.0535 -20.4792 -20.4663 -19.4365 -19.4307 -19.4162 -19.4133
   -18.9983 -18.9953 -18.3286 -18.3250 -18.3242 -18.3233 -17.8029 -17.7912
   -12.0741 -12.0714 -12.0701 -12.0696 -11.8867 -11.8766 -11.3351 -11.3332
   -10.2438 -10.2354 -10.1421 -10.1405 -10.1325 -10.1316  -8.6002  -8.5559
    -8.5515  -8.5512  -8.5499  -8.5465  -7.8727  -7.8717  -7.8631  -7.8621
    -7.8311  -7.8234  -7.7931  -7.7542  -7.4948  -7.4936  -6.6207  -6.6113
    -6.3756  -6.3464  -6.3038  -6.2960  -6.1956  -6.1936  -5.7206  -5.7002
    -5.5505  -5.5494  -4.7354  -4.7304  -4.7024  -4.6936  -3.9002  -3.8673
    -2.8485  -2.0297  -2.0111  -1.8261  -1.6517  -1.5608  -1.4984  -1.4919
    -1.3883  -1.3697  -1.2973  -0.8742   0.7276   1.0167   1.1078   1.2110
     1.3215   1.5426   1.5808   1.6217   1.7262   1.7468

          k =-0.1667 0.2887 0.0000 ( 59267 PWs)   bands (ev):

   -72.8826 -72.8751 -44.4294 -44.3544 -44.2918 -44.2845 -44.2505 -44.2432
   -21.2536 -20.6670 -20.6623 -20.1096 -20.1045 -19.5924 -19.5903 -19.1058
   -18.7057 -18.6977 -18.4618 -18.4587 -18.2018 -18.0911 -18.0830 -17.8557
   -12.4905 -12.2111 -12.2091 -11.8264 -11.8238 -11.6646 -11.1977 -11.1953
   -10.3978 -10.3741 -10.1234 -10.1210  -9.5954  -9.5942  -8.8439  -8.8319
    -8.8300  -8.7716  -8.7685  -8.6023  -8.2030  -8.0622  -8.0190  -7.8359
    -7.8332  -7.4451  -7.4429  -7.2880  -7.2671  -7.2142  -7.2128  -6.9648
    -6.9631  -6.5752  -6.5412  -6.1603  -6.1589  -5.8785  -5.4248  -5.3111
    -5.2770  -5.2062  -4.9174  -4.9080  -4.5148  -4.3623  -4.3429  -3.9857
    -2.8641  -2.0306  -2.0147  -1.8285  -1.6518  -1.5617  -1.4971  -1.4879
    -1.3849  -1.3627  -1.2918  -0.7480   0.6419   0.8333   1.0938   1.1942
     1.2781   1.4566   1.5165   1.5747   1.6200   1.7882

          k = 0.3333 0.0000 0.0000 ( 59267 PWs)   bands (ev):

   -72.8826 -72.8751 -44.4294 -44.3544 -44.2919 -44.2845 -44.2505 -44.2432
   -21.2531 -20.6959 -20.6332 -20.1189 -20.0928 -19.6239 -19.5616 -19.1088
   -18.7236 -18.6727 -18.4746 -18.4479 -18.1966 -18.1184 -18.0646 -17.8545
   -12.4892 -12.2195 -12.2013 -11.8375 -11.8159 -11.6621 -11.2178 -11.1753
   -10.3976 -10.3730 -10.1390 -10.1065  -9.6021  -9.5856  -8.8446  -8.8376
    -8.8198  -8.7979  -8.7444  -8.6038  -8.2055  -8.1136  -7.9669  -7.8363
    -7.8301  -7.4515  -7.4357  -7.3083  -7.2398  -7.2254  -7.2012  -6.9759
    -6.9540  -6.6312  -6.4947  -6.1635  -6.1546  -5.8871  -5.4245  -5.3255
    -5.2468  -5.2068  -4.9443  -4.8840  -4.5063  -4.3998  -4.3215  -3.9833
    -2.8558  -2.0297  -2.0120  -1.8292  -1.6540  -1.5612  -1.4960  -1.4893
    -1.3871  -1.3675  -1.2949  -0.8335   0.7491   1.0160   1.1388   1.2341
     1.2965   1.4529   1.5229   1.5655   1.5723   1.8318

          k =-0.1667-0.4811 0.0000 ( 59291 PWs)   bands (ev):

   -72.8826 -72.8751 -44.4294 -44.3544 -44.2918 -44.2846 -44.2505 -44.2432
   -21.1240 -20.9173 -20.7296 -20.1677 -19.8109 -19.4724 -19.3237 -19.1814
   -19.0202 -18.7843 -18.6515 -18.5485 -18.1573 -18.0926 -17.9283 -17.7301
   -12.3550 -12.1198 -12.0504 -11.9116 -11.6863 -11.6649 -11.5583 -10.9478
   -10.8968 -10.6300 -10.5282  -9.8669  -9.6993  -9.3421  -9.1172  -8.6773
    -8.6294  -8.5596  -8.3945  -8.3720  -8.1675  -8.1295  -8.0692  -8.0561
    -7.6960  -7.6295  -7.5006  -7.4798  -7.3640  -7.1765  -7.0737  -6.8681
    -6.6285  -6.3947  -6.1867  -6.1641  -5.9788  -5.9353  -5.7900  -5.7507
    -5.4573  -5.4019  -5.2238  -5.0442  -4.4552  -4.3486  -4.0955  -3.7741
    -2.8613  -2.0311  -2.0143  -1.8251  -1.6503  -1.5614  -1.4994  -1.4897
    -1.3850  -1.3627  -1.2923  -0.7513   0.5608   0.8378   1.0730   1.1369
     1.2078   1.2630   1.3975   1.8352   1.9263   2.1043

          k = 0.5000-0.0962 0.0000 ( 59291 PWs)   bands (ev):

   -72.8826 -72.8751 -44.4294 -44.3544 -44.2918 -44.2845 -44.2505 -44.2432
   -21.1204 -20.9272 -20.7233 -20.1654 -19.8103 -19.4760 -19.3306 -19.1747
   -19.0221 -18.7867 -18.6366 -18.5562 -18.1430 -18.1133 -17.9246 -17.7295
   -12.3526 -12.1208 -12.0481 -11.9173 -11.7008 -11.6476 -11.5608 -10.9485
   -10.8937 -10.6277 -10.5316  -9.8640  -9.6999  -9.3431  -9.1163  -8.6650
    -8.6304  -8.5571  -8.4078  -8.3993  -8.1651  -8.1076  -8.0850  -8.0417
    -7.6906  -7.6302  -7.4995  -7.4813  -7.3569  -7.1785  -7.0746  -6.8653
    -6.6290  -6.4092  -6.2031  -6.1631  -5.9609  -5.9345  -5.7890  -5.7554
    -5.4589  -5.4063  -5.1908  -5.0609  -4.4307  -4.3837  -4.0901  -3.7726
    -2.8485  -2.0297  -2.0111  -1.8261  -1.6523  -1.5608  -1.4984  -1.4919
    -1.3883  -1.3697  -1.2973  -0.8740   0.7104   1.0144   1.1272   1.2034
     1.2579   1.2909   1.5233   1.7514   1.8424   1.9283

          k =-0.3333-0.3849 0.0000 ( 59291 PWs)   bands (ev):

   -72.8826 -72.8751 -44.4294 -44.3544 -44.2918 -44.2846 -44.2505 -44.2432
   -21.1216 -20.9237 -20.7258 -20.1650 -19.8134 -19.4729 -19.3238 -19.1799
   -19.0259 -18.7838 -18.6385 -18.5557 -18.1462 -18.1092 -17.9248 -17.7298
   -12.3541 -12.1174 -12.0513 -11.9151 -11.6879 -11.6626 -11.5598 -10.9484
   -10.8935 -10.6270 -10.5322  -9.8647  -9.7000  -9.3427  -9.1178  -8.6692
    -8.6284  -8.5592  -8.3970  -8.3937  -8.1669  -8.1161  -8.0689  -8.0595
    -7.6909  -7.6284  -7.5077  -7.4736  -7.3547  -7.1786  -7.0756  -6.8767
    -6.6263  -6.3969  -6.1846  -6.1661  -5.9774  -5.9331  -5.7894  -5.7655
    -5.4586  -5.3985  -5.1922  -5.0625  -4.4341  -4.3790  -4.0898  -3.7732
    -2.8528  -2.0302  -2.0125  -1.8258  -1.6512  -1.5610  -1.4986  -1.4912
    -1.3872  -1.3673  -1.2955  -0.8366   0.6623   0.9734   1.0885   1.1857
     1.2167   1.3499   1.4153   1.8193   1.8859   1.9187

          k = 0.5000 0.0962 0.0000 ( 59291 PWs)   bands (ev):

   -72.8826 -72.8751 -44.4294 -44.3544 -44.2918 -44.2845 -44.2505 -44.2432
   -21.1204 -20.9272 -20.7233 -20.1654 -19.8103 -19.4760 -19.3306 -19.1747
   -19.0221 -18.7867 -18.6366 -18.5562 -18.1430 -18.1134 -17.9245 -17.7295
   -12.3526 -12.1208 -12.0480 -11.9173 -11.7008 -11.6476 -11.5608 -10.9485
   -10.8937 -10.6277 -10.5316  -9.8640  -9.6999  -9.3431  -9.1163  -8.6650
    -8.6304  -8.5571  -8.4078  -8.3993  -8.1651  -8.1076  -8.0850  -8.0417
    -7.6907  -7.6301  -7.4995  -7.4813  -7.3569  -7.1786  -7.0746  -6.8653
    -6.6289  -6.4092  -6.2031  -6.1630  -5.9609  -5.9344  -5.7891  -5.7554
    -5.4589  -5.4063  -5.1908  -5.0608  -4.4307  -4.3837  -4.0901  -3.7726
    -2.8485  -2.0297  -2.0111  -1.8261  -1.6523  -1.5608  -1.4984  -1.4919
    -1.3883  -1.3697  -1.2973  -0.8740   0.7105   1.0144   1.1272   1.2034
     1.2580   1.2909   1.5233   1.7514   1.8424   1.9282

          k =-0.3333 0.3849 0.0000 ( 59291 PWs)   bands (ev):

   -72.8826 -72.8751 -44.4294 -44.3544 -44.2918 -44.2846 -44.2505 -44.2432
   -21.1217 -20.9237 -20.7258 -20.1649 -19.8134 -19.4729 -19.3238 -19.1799
   -19.0259 -18.7838 -18.6385 -18.5557 -18.1462 -18.1092 -17.9248 -17.7298
   -12.3541 -12.1174 -12.0513 -11.9151 -11.6879 -11.6626 -11.5598 -10.9484
   -10.8935 -10.6269 -10.5322  -9.8647  -9.7000  -9.3426  -9.1178  -8.6692
    -8.6285  -8.5591  -8.3971  -8.3937  -8.1670  -8.1161  -8.0688  -8.0595
    -7.6909  -7.6284  -7.5077  -7.4736  -7.3547  -7.1785  -7.0757  -6.8767
    -6.6263  -6.3969  -6.1846  -6.1662  -5.9774  -5.9331  -5.7893  -5.7655
    -5.4584  -5.3985  -5.1922  -5.0625  -4.4342  -4.3790  -4.0898  -3.7732
    -2.8528  -2.0302  -2.0125  -1.8258  -1.6512  -1.5610  -1.4986  -1.4912
    -1.3872  -1.3673  -1.2955  -0.8366   0.6623   0.9734   1.0885   1.1857
     1.2167   1.3500   1.4153   1.8193   1.8859   1.9187

          k =-0.1667-0.0962 0.0000 ( 59226 PWs)   bands (ev):

   -72.8826 -72.8751 -44.4294 -44.3544 -44.2918 -44.2845 -44.2505 -44.2431
   -21.3199 -20.5432 -20.3547 -20.3414 -19.9990 -19.9839 -19.8111 -18.7409
   -18.7253 -18.3829 -18.3756 -18.3600 -18.2724 -18.2701 -18.0849 -18.0744
   -12.5119 -12.5101 -12.4139 -11.5893 -11.5803 -11.4304 -11.4287 -10.9329
   -10.9287  -9.9371  -9.9308  -9.6820  -9.3815  -9.3783  -9.2365  -9.2332
    -9.0484  -9.0462  -8.9312  -8.3311  -8.3262  -7.9083  -7.9056  -7.8903
    -7.8511  -7.7765  -7.6196  -7.5830  -7.1489  -7.0928  -6.9659  -6.8953
    -6.8903  -6.8554  -6.5390  -6.5327  -6.2637  -5.3691  -5.3167  -5.1493
    -5.0717  -4.8236  -4.8069  -4.7525  -4.6196  -4.6108  -4.3607  -4.3324
    -2.8671  -2.0301  -2.0152  -1.8318  -1.6544  -1.5619  -1.4950  -1.4862
    -1.3848  -1.3628  -1.2914  -0.7445   0.7319   0.8089   1.0526   1.2058
     1.2908   1.3405   1.5701   1.5851   1.7208   1.9042

          k =-0.0000-0.1925 0.0000 ( 59226 PWs)   bands (ev):

   -72.8825 -72.8751 -44.4294 -44.3543 -44.2919 -44.2845 -44.2505 -44.2432
   -21.3201 -20.5369 -20.3595 -20.3479 -19.9920 -19.9814 -19.8155 -18.7359
   -18.7252 -18.4154 -18.3685 -18.3579 -18.2596 -18.2583 -18.0877 -18.0781
   -12.5201 -12.5022 -12.4137 -11.5895 -11.5815 -11.4379 -11.4179 -10.9338
   -10.9302  -9.9346  -9.9334  -9.6818  -9.3866  -9.3716  -9.2363  -9.2356
    -9.0479  -9.0461  -8.9319  -8.3294  -8.3271  -7.9087  -7.9024  -7.8702
    -7.8507  -7.7787  -7.6396  -7.6016  -7.1178  -7.0937  -6.9642  -6.8959
    -6.8916  -6.8680  -6.5379  -6.5331  -6.2643  -5.3511  -5.3238  -5.1498
    -5.0712  -4.8805  -4.7832  -4.7589  -4.6021  -4.5876  -4.3604  -4.3442
    -2.8712  -2.0306  -2.0166  -1.8314  -1.6533  -1.5621  -1.4957  -1.4855
    -1.3837  -1.3604  -1.2900  -0.6945   0.6393   0.7572   1.0363   1.1757
     1.2449   1.4033   1.5503   1.6096   1.6848   1.9890

          k = 0.5000-0.8660 0.0000 ( 59292 PWs)   bands (ev):

   -72.8826 -72.8751 -44.4294 -44.3544 -44.2919 -44.2846 -44.2505 -44.2432
   -21.0564 -21.0535 -20.4792 -20.4664 -19.4365 -19.4307 -19.4162 -19.4133
   -18.9982 -18.9954 -18.3286 -18.3249 -18.3242 -18.3233 -17.8029 -17.7912
   -12.0741 -12.0713 -12.0702 -12.0696 -11.8867 -11.8765 -11.3350 -11.3332
   -10.2438 -10.2355 -10.1421 -10.1405 -10.1325 -10.1316  -8.6002  -8.5559
    -8.5515  -8.5512  -8.5499  -8.5464  -7.8727  -7.8716  -7.8632  -7.8620
    -7.8311  -7.8234  -7.7931  -7.7542  -7.4949  -7.4936  -6.6207  -6.6113
    -6.3756  -6.3464  -6.3038  -6.2960  -6.1955  -6.1935  -5.7206  -5.7002
    -5.5505  -5.5495  -4.7353  -4.7304  -4.7024  -4.6936  -3.9002  -3.8673
    -2.8485  -2.0297  -2.0111  -1.8261  -1.6517  -1.5608  -1.4984  -1.4919
    -1.3883  -1.3697  -1.2973  -0.8742   0.7277   1.0167   1.1079   1.2110
     1.3215   1.5426   1.5808   1.6217   1.7262   1.7469

          k =-1.0000 0.0000 0.0000 ( 59292 PWs)   bands (ev):

   -72.8826 -72.8751 -44.4294 -44.3544 -44.2918 -44.2845 -44.2505 -44.2431
   -21.0846 -21.0217 -20.4816 -20.4701 -19.4377 -19.4330 -19.4175 -19.4010
   -19.0227 -18.9723 -18.3966 -18.3169 -18.3082 -18.2809 -17.8028 -17.7935
   -12.1232 -12.0729 -12.0508 -12.0342 -11.8867 -11.8767 -11.3582 -11.3120
   -10.2495 -10.2479 -10.1368 -10.1367 -10.1290 -10.1289  -8.6435  -8.5907
    -8.5563  -8.5352  -8.5185  -8.4927  -7.8846  -7.8752  -7.8674  -7.8654
    -7.8199  -7.8173  -7.7965  -7.7676  -7.5233  -7.4680  -6.6173  -6.6113
    -6.3699  -6.3477  -6.3052  -6.2762  -6.2178  -6.1750  -5.7503  -5.6757
    -5.5755  -5.5246  -4.8497  -4.6991  -4.6784  -4.6399  -3.8929  -3.8782
    -2.8654  -2.0316  -2.0146  -1.8248  -1.6499  -1.5616  -1.4997  -1.4890
    -1.3839  -1.3605  -1.2909  -0.7021   0.5207   0.7472   1.0895   1.1084
     1.1610   1.5185   1.5773   1.6194   1.6329   1.9272

 ------ SPIN DOWN ----------


          k = 0.1667 0.2887 0.0000 ( 59267 PWs)   bands (ev):

   -68.6842 -68.6756 -40.3569 -40.2677 -40.1213 -40.1125 -40.0426 -40.0338
   -21.2498 -20.6627 -20.6592 -20.1056 -20.1009 -19.5886 -19.5867 -19.1019
   -18.7002 -18.6945 -18.4578 -18.4549 -18.1971 -18.0871 -18.0801 -17.8517
   -12.4883 -12.2087 -12.2068 -11.8242 -11.8218 -11.6626 -11.1951 -11.1931
   -10.3951 -10.3717 -10.1201 -10.1190  -9.5928  -9.5921  -8.8295  -8.8273
    -8.8239  -8.7693  -8.7661  -8.6000  -8.2008  -8.0380  -8.0098  -7.8333
    -7.8309  -7.4415  -7.4404  -7.2685  -7.2539  -7.2118  -7.2105  -6.9624
    -6.9608  -6.5539  -6.5334  -6.1575  -6.1565  -5.8623  -5.4217  -5.2852
    -5.2667  -5.2037  -4.9030  -4.8954  -4.4974  -4.3475  -4.3348  -3.9720
    -1.4416   0.3861   0.8220   0.9699   1.1197   1.1776   1.2882   1.3621
     1.3979   1.4659   1.5458   1.6177   1.6370   1.7323   1.8859   2.0316
     2.0538   2.0624   2.1418   2.1669   2.3029   2.3398

          k = 0.1667-0.4811 0.0000 ( 59291 PWs)   bands (ev):

   -68.6842 -68.6756 -40.3569 -40.2677 -40.1213 -40.1125 -40.0426 -40.0338
   -21.1199 -20.9142 -20.7258 -20.1638 -19.8072 -19.4687 -19.3199 -19.1773
   -19.0164 -18.7806 -18.6461 -18.5455 -18.1518 -18.0903 -17.9242 -17.7260
   -12.3526 -12.1175 -12.0482 -11.9096 -11.6844 -11.6624 -11.5561 -10.9453
   -10.8940 -10.6274 -10.5260  -9.8640  -9.6970  -9.3393  -9.1147  -8.6538
    -8.6269  -8.5566  -8.3924  -8.3605  -8.1652  -8.1128  -8.0668  -8.0538
    -7.6932  -7.6271  -7.4981  -7.4776  -7.3463  -7.1737  -7.0714  -6.8520
    -6.6253  -6.3796  -6.1695  -6.1616  -5.9639  -5.9323  -5.7873  -5.7358
    -5.4547  -5.3881  -5.1999  -5.0358  -4.4342  -4.3427  -4.0819  -3.7605
    -1.4323   0.3760   0.8202   0.9308   1.0232   1.1395   1.2353   1.2658
     1.3733   1.4170   1.5605   1.7299   1.7733   1.8886   1.9262   2.0544
     2.1094   2.1276   2.1626   2.2048   2.3116   2.3403

          k = 0.1667-0.0962 0.0000 ( 59226 PWs)   bands (ev):

   -68.6842 -68.6756 -40.3569 -40.2677 -40.1213 -40.1125 -40.0426 -40.0338
   -21.3162 -20.5390 -20.3509 -20.3384 -19.9942 -19.9807 -19.8079 -18.7356
   -18.7218 -18.3777 -18.3717 -18.3568 -18.2683 -18.2661 -18.0812 -18.0712
   -12.5096 -12.5079 -12.4117 -11.5868 -11.5786 -11.4280 -11.4263 -10.9303
   -10.9265  -9.9343  -9.9288  -9.6793  -9.3790  -9.3760  -9.2336  -9.2306
    -9.0459  -9.0440  -8.9127  -8.3279  -8.3234  -7.9054  -7.9033  -7.8678
    -7.8477  -7.7741  -7.6030  -7.5733  -7.1234  -7.0828  -6.9633  -6.8926
    -6.8883  -6.8454  -6.5362  -6.5306  -6.2612  -5.3429  -5.3059  -5.1466
    -5.0688  -4.8012  -4.7907  -4.7429  -4.6059  -4.5993  -4.3461  -4.3232
    -1.4508   0.3988   0.8217   0.9730   1.0765   1.1557   1.2058   1.3133
     1.5035   1.5285   1.6008   1.6654   1.7880   1.8228   1.8715   1.9335
     2.0229   2.0698   2.1123   2.1372   2.2553   2.3414

          k =-0.5000-0.8660 0.0000 ( 59292 PWs)   bands (ev):

   -68.6842 -68.6756 -40.3569 -40.2677 -40.1213 -40.1125 -40.0426 -40.0338
   -21.0518 -21.0505 -20.4753 -20.4633 -19.4311 -19.4261 -19.4134 -19.4102
   -18.9937 -18.9924 -18.3229 -18.3220 -18.3212 -18.3188 -17.7985 -17.7876
   -12.0709 -12.0691 -12.0685 -12.0673 -11.8843 -11.8751 -11.3324 -11.3312
   -10.2407 -10.2336 -10.1389 -10.1378 -10.1302 -10.1294  -8.5717  -8.5510
    -8.5497  -8.5490  -8.5472  -8.5387  -7.8696  -7.8689  -7.8612  -7.8601
    -7.8278  -7.8203  -7.7751  -7.7442  -7.4933  -7.4907  -6.6174  -6.6093
    -6.3436  -6.3260  -6.2952  -6.2876  -6.1929  -6.1907  -5.7017  -5.6919
    -5.5479  -5.5467  -4.7130  -4.7070  -4.6944  -4.6892  -3.8833  -3.8579
    -1.4083   0.1326   0.8337   1.0088   1.0625   1.1736   1.2544   1.3964
     1.5032   1.5557   1.5733   1.7167   1.7627   1.8739   1.9110   1.9432
     1.9654   2.0959   2.1693   2.1846   2.3216   2.3500

          k =-0.1667 0.2887 0.0000 ( 59267 PWs)   bands (ev):

   -68.6842 -68.6756 -40.3569 -40.2677 -40.1213 -40.1125 -40.0426 -40.0338
   -21.2498 -20.6627 -20.6592 -20.1056 -20.1009 -19.5887 -19.5867 -19.1019
   -18.7002 -18.6945 -18.4578 -18.4549 -18.1971 -18.0871 -18.0801 -17.8517
   -12.4882 -12.2087 -12.2068 -11.8242 -11.8218 -11.6626 -11.1950 -11.1931
   -10.3951 -10.3716 -10.1201 -10.1190  -9.5928  -9.5920  -8.8294  -8.8272
    -8.8239  -8.7694  -8.7661  -8.6000  -8.2008  -8.0380  -8.0098  -7.8333
    -7.8309  -7.4415  -7.4403  -7.2685  -7.2539  -7.2118  -7.2104  -6.9625
    -6.9608  -6.5539  -6.5334  -6.1575  -6.1565  -5.8623  -5.4218  -5.2852
    -5.2668  -5.2036  -4.9030  -4.8954  -4.4975  -4.3475  -4.3348  -3.9720
    -1.4416   0.3861   0.8220   0.9699   1.1198   1.1776   1.2882   1.3621
     1.3978   1.4659   1.5458   1.6177   1.6370   1.7323   1.8859   2.0316
     2.0538   2.0624   2.1419   2.1668   2.3031   2.3398

          k = 0.3333 0.0000 0.0000 ( 59267 PWs)   bands (ev):

   -68.6842 -68.6756 -40.3569 -40.2677 -40.1213 -40.1125 -40.0426 -40.0338
   -21.2493 -20.6904 -20.6313 -20.1147 -20.0897 -19.6181 -19.5597 -19.1046
   -18.7177 -18.6708 -18.4700 -18.4444 -18.1926 -18.1123 -18.0626 -17.8506
   -12.4870 -12.2167 -12.1994 -11.8350 -11.8140 -11.6603 -11.2144 -11.1738
   -10.3950 -10.3706 -10.1353 -10.1049  -9.5992  -9.5838  -8.8346  -8.8278
    -8.8150  -8.7943  -8.7432  -8.6013  -8.2030  -8.0844  -7.9631  -7.8338
    -7.8280  -7.4478  -7.4334  -7.2858  -7.2315  -7.2222  -7.1995  -6.9729
    -6.9521  -6.6033  -6.4905  -6.1607  -6.1524  -5.8686  -5.4215  -5.3027
    -5.2382  -5.2041  -4.9248  -4.8755  -4.4906  -4.3803  -4.3141  -3.9705
    -1.4262   0.2132   0.8753   0.9675   1.1208   1.1582   1.2531   1.4338
     1.4671   1.4958   1.5559   1.7088   1.7578   1.8588   1.8963   1.9166
     2.0160   2.0620   2.1424   2.2141   2.3027   2.3412

          k =-0.1667-0.4811 0.0000 ( 59291 PWs)   bands (ev):

   -68.6842 -68.6756 -40.3569 -40.2677 -40.1213 -40.1125 -40.0426 -40.0338
   -21.1199 -20.9142 -20.7258 -20.1638 -19.8072 -19.4687 -19.3199 -19.1773
   -19.0164 -18.7806 -18.6461 -18.5455 -18.1518 -18.0903 -17.9242 -17.7260
   -12.3526 -12.1175 -12.0482 -11.9096 -11.6844 -11.6624 -11.5561 -10.9453
   -10.8941 -10.6274 -10.5260  -9.8639  -9.6970  -9.3394  -9.1147  -8.6538
    -8.6269  -8.5566  -8.3923  -8.3605  -8.1651  -8.1128  -8.0668  -8.0539
    -7.6932  -7.6271  -7.4980  -7.4776  -7.3463  -7.1737  -7.0713  -6.8520
    -6.6253  -6.3796  -6.1695  -6.1616  -5.9639  -5.9323  -5.7873  -5.7358
    -5.4548  -5.3881  -5.1999  -5.0358  -4.4342  -4.3427  -4.0819  -3.7605
    -1.4323   0.3760   0.8202   0.9307   1.0232   1.1395   1.2353   1.2658
     1.3732   1.4170   1.5606   1.7299   1.7733   1.8886   1.9262   2.0544
     2.1093   2.1276   2.1626   2.2048   2.3117   2.3401

          k = 0.5000-0.0962 0.0000 ( 59291 PWs)   bands (ev):

   -68.6842 -68.6756 -40.3569 -40.2677 -40.1213 -40.1125 -40.0426 -40.0338
   -21.1166 -20.9230 -20.7202 -20.1618 -19.8066 -19.4718 -19.3260 -19.1715
   -19.0181 -18.7827 -18.6330 -18.5522 -18.1389 -18.1087 -17.9210 -17.7255
   -12.3504 -12.1184 -12.0461 -11.9148 -11.6980 -11.6463 -11.5584 -10.9460
   -10.8912 -10.6252 -10.5291  -9.8614  -9.6975  -9.3403  -9.1140  -8.6449
    -8.6277  -8.5544  -8.3981  -8.3855  -8.1630  -8.0969  -8.0815  -8.0404
    -7.6884  -7.6277  -7.4971  -7.4791  -7.3411  -7.1755  -7.0722  -6.8502
    -6.6258  -6.3886  -6.1829  -6.1607  -5.9509  -5.9315  -5.7864  -5.7391
    -5.4562  -5.3912  -5.1760  -5.0481  -4.4134  -4.3709  -4.0780  -3.7596
    -1.4083   0.1344   0.8324   0.9852   1.0431   1.1664   1.2092   1.2659
     1.4072   1.5953   1.6807   1.7830   1.8807   1.9124   1.9615   1.9862
     2.0267   2.0899   2.1975   2.2466   2.3020   2.3544

          k =-0.3333-0.3849 0.0000 ( 59291 PWs)   bands (ev):

   -68.6842 -68.6756 -40.3569 -40.2677 -40.1213 -40.1125 -40.0426 -40.0338
   -21.1178 -20.9199 -20.7224 -20.1614 -19.8094 -19.4691 -19.3200 -19.1760
   -19.0215 -18.7802 -18.6346 -18.5519 -18.1417 -18.1051 -17.9212 -17.7257
   -12.3519 -12.1152 -12.0491 -11.9127 -11.6859 -11.6603 -11.5575 -10.9458
   -10.8911 -10.6245 -10.5296  -9.8619  -9.6976  -9.3399  -9.1153  -8.6478
    -8.6260  -8.5562  -8.3943  -8.3767  -8.1646  -8.1031  -8.0665  -8.0570
    -7.6886  -7.6261  -7.5046  -7.4721  -7.3396  -7.1755  -7.0730  -6.8581
    -6.6234  -6.3810  -6.1691  -6.1630  -5.9621  -5.9303  -5.7868  -5.7470
    -5.4559  -5.3857  -5.1772  -5.0490  -4.4164  -4.3671  -4.0778  -3.7599
    -1.4165   0.2016   0.8192   0.9781   1.0329   1.1675   1.2259   1.2963
     1.3787   1.5057   1.6874   1.7557   1.8513   1.8994   1.9425   2.0229
     2.0630   2.0887   2.1359   2.2078   2.3162   2.3458

          k = 0.5000 0.0962 0.0000 ( 59291 PWs)   bands (ev):

   -68.6842 -68.6756 -40.3569 -40.2677 -40.1213 -40.1125 -40.0426 -40.0338
   -21.1166 -20.9230 -20.7202 -20.1618 -19.8066 -19.4718 -19.3260 -19.1715
   -19.0181 -18.7827 -18.6330 -18.5522 -18.1389 -18.1087 -17.9210 -17.7255
   -12.3504 -12.1184 -12.0461 -11.9148 -11.6980 -11.6463 -11.5584 -10.9459
   -10.8912 -10.6252 -10.5291  -9.8614  -9.6975  -9.3403  -9.1140  -8.6449
    -8.6277  -8.5544  -8.3981  -8.3855  -8.1630  -8.0969  -8.0815  -8.0404
    -7.6884  -7.6277  -7.4971  -7.4791  -7.3411  -7.1755  -7.0721  -6.8502
    -6.6257  -6.3886  -6.1829  -6.1606  -5.9509  -5.9315  -5.7865  -5.7391
    -5.4562  -5.3912  -5.1760  -5.0480  -4.4134  -4.3709  -4.0780  -3.7596
    -1.4083   0.1344   0.8324   0.9852   1.0431   1.1664   1.2091   1.2659
     1.4072   1.5953   1.6806   1.7830   1.8807   1.9124   1.9615   1.9862
     2.0267   2.0899   2.1975   2.2466   2.3014   2.3537

          k =-0.3333 0.3849 0.0000 ( 59291 PWs)   bands (ev):

   -68.6842 -68.6756 -40.3569 -40.2677 -40.1213 -40.1125 -40.0426 -40.0338
   -21.1178 -20.9199 -20.7224 -20.1614 -19.8094 -19.4691 -19.3200 -19.1761
   -19.0215 -18.7802 -18.6345 -18.5519 -18.1416 -18.1051 -17.9212 -17.7257
   -12.3519 -12.1152 -12.0491 -11.9127 -11.6860 -11.6603 -11.5574 -10.9459
   -10.8911 -10.6245 -10.5296  -9.8620  -9.6976  -9.3399  -9.1153  -8.6478
    -8.6261  -8.5561  -8.3943  -8.3767  -8.1647  -8.1031  -8.0664  -8.0570
    -7.6886  -7.6261  -7.5046  -7.4720  -7.3397  -7.1755  -7.0731  -6.8581
    -6.6234  -6.3810  -6.1691  -6.1630  -5.9621  -5.9304  -5.7867  -5.7470
    -5.4558  -5.3857  -5.1772  -5.0490  -4.4164  -4.3671  -4.0778  -3.7599
    -1.4165   0.2016   0.8192   0.9781   1.0328   1.1675   1.2259   1.2963
     1.3787   1.5057   1.6874   1.7556   1.8513   1.8994   1.9425   2.0228
     2.0631   2.0888   2.1361   2.2079   2.3165   2.3459

          k =-0.1667-0.0962 0.0000 ( 59226 PWs)   bands (ev):

   -68.6842 -68.6756 -40.3569 -40.2677 -40.1213 -40.1125 -40.0426 -40.0338
   -21.3162 -20.5390 -20.3509 -20.3385 -19.9942 -19.9807 -19.8079 -18.7356
   -18.7218 -18.3777 -18.3717 -18.3568 -18.2683 -18.2661 -18.0812 -18.0712
   -12.5096 -12.5079 -12.4117 -11.5868 -11.5786 -11.4280 -11.4263 -10.9303
   -10.9265  -9.9343  -9.9288  -9.6792  -9.3790  -9.3759  -9.2336  -9.2306
    -9.0459  -9.0440  -8.9127  -8.3279  -8.3234  -7.9054  -7.9033  -7.8678
    -7.8476  -7.7742  -7.6029  -7.5733  -7.1234  -7.0828  -6.9633  -6.8926
    -6.8882  -6.8454  -6.5362  -6.5306  -6.2613  -5.3429  -5.3059  -5.1465
    -5.0689  -4.8012  -4.7907  -4.7429  -4.6059  -4.5993  -4.3461  -4.3232
    -1.4508   0.3988   0.8217   0.9730   1.0765   1.1557   1.2058   1.3134
     1.5035   1.5284   1.6008   1.6654   1.7880   1.8228   1.8715   1.9336
     2.0229   2.0698   2.1123   2.1372   2.2554   2.3416

          k =-0.0000-0.1925 0.0000 ( 59226 PWs)   bands (ev):

   -68.6842 -68.6756 -40.3569 -40.2677 -40.1213 -40.1125 -40.0426 -40.0338
   -21.3164 -20.5334 -20.3551 -20.3443 -19.9882 -19.9783 -19.8118 -18.7313
   -18.7216 -18.4079 -18.3643 -18.3545 -18.2579 -18.2547 -18.0835 -18.0745
   -12.5174 -12.5003 -12.4114 -11.5870 -11.5795 -11.4353 -11.4161 -10.9310
   -10.9278  -9.9322  -9.9310  -9.6791  -9.3837  -9.3697  -9.2336  -9.2326
    -9.0456  -9.0438  -8.9131  -8.3266  -8.3242  -7.9063  -7.9003  -7.8557
    -7.8447  -7.7762  -7.6155  -7.5887  -7.1020  -7.0821  -6.9617  -6.8933
    -6.8892  -6.8550  -6.5353  -6.5309  -6.2618  -5.3304  -5.3101  -5.1469
    -5.0685  -4.8481  -4.7721  -4.7448  -4.5953  -4.5793  -4.3462  -4.3314
    -1.4580   0.5378   0.7755   0.9623   1.0808   1.1428   1.2357   1.2541
     1.4753   1.4777   1.5364   1.6046   1.7228   1.8182   1.9109   2.0049
     2.0625   2.0627   2.1381   2.1530   2.1893   2.3225

          k = 0.5000-0.8660 0.0000 ( 59292 PWs)   bands (ev):

   -68.6842 -68.6756 -40.3569 -40.2677 -40.1213 -40.1125 -40.0426 -40.0338
   -21.0519 -21.0504 -20.4753 -20.4633 -19.4312 -19.4261 -19.4134 -19.4102
   -18.9938 -18.9924 -18.3229 -18.3220 -18.3213 -18.3187 -17.7985 -17.7876
   -12.0709 -12.0691 -12.0685 -12.0672 -11.8842 -11.8750 -11.3323 -11.3311
   -10.2408 -10.2336 -10.1389 -10.1378 -10.1302 -10.1294  -8.5716  -8.5510
    -8.5498  -8.5490  -8.5471  -8.5387  -7.8696  -7.8688  -7.8612  -7.8600
    -7.8278  -7.8204  -7.7751  -7.7442  -7.4934  -7.4907  -6.6174  -6.6092
    -6.3436  -6.3260  -6.2952  -6.2876  -6.1929  -6.1905  -5.7017  -5.6920
    -5.5480  -5.5468  -4.7129  -4.7070  -4.6944  -4.6892  -3.8833  -3.8579
    -1.4083   0.1326   0.8337   1.0088   1.0625   1.1735   1.2545   1.3964
     1.5032   1.5556   1.5732   1.7167   1.7627   1.8739   1.9109   1.9432
     1.9654   2.0959   2.1693   2.1846   2.3213   2.3502

          k =-1.0000 0.0000 0.0000 ( 59292 PWs)   bands (ev):

   -68.6842 -68.6756 -40.3569 -40.2677 -40.1213 -40.1125 -40.0426 -40.0337
   -21.0792 -21.0199 -20.4773 -20.4666 -19.4333 -19.4288 -19.4136 -19.3985
   -19.0170 -18.9704 -18.3879 -18.3131 -18.3050 -18.2803 -17.7983 -17.7897
   -12.1187 -12.0706 -12.0493 -12.0335 -11.8845 -11.8749 -11.3547 -11.3105
   -10.2464 -10.2446 -10.1343 -10.1342 -10.1271 -10.1267  -8.6129  -8.5862
    -8.5537  -8.5337  -8.5178  -8.4890  -7.8809  -7.8721  -7.8649  -7.8630
    -7.8154  -7.8143  -7.7783  -7.7549  -7.5196  -7.4669  -6.6146  -6.6091
    -6.3441  -6.3277  -6.2942  -6.2700  -6.2137  -6.1730  -5.7302  -5.6671
    -5.5713  -5.5235  -4.8113  -4.6870  -4.6706  -4.6386  -3.8786  -3.8651
    -1.4399   0.5026   0.8337   0.9291   1.0218   1.1142   1.2318   1.2675
     1.3584   1.4756   1.6060   1.6393   1.6690   1.7741   1.8660   1.9308
     2.0795   2.1036   2.1711   2.1734   2.3326   2.3603

     the Fermi energy is    -1.1667 ev

!    total energy              =   -1133.82788901 Ry

     total all-electron energy =     -6753.503592 Ry
     estimated scf accuracy    <       0.00000009 Ry
     smearing contrib. (-TS)   =      -0.00000000 Ry
     internal energy E=F+TS    =   -1133.82788901 Ry

     The total energy is F=E-TS. E is the sum of the following terms:
     one-electron contribution =   -3952.10922757 Ry
     hartree contribution      =    2004.21437655 Ry
     xc contribution           =    -186.01708040 Ry
     ewald contribution        =    1359.46100362 Ry
     DFT-D3 Dispersion         =      -0.13437090 Ry
     one-center paw contrib.   =    -359.24259031 Ry

     total magnetization       =    10.00 Bohr mag/cell
     absolute magnetization    =    10.01 Bohr mag/cell

     convergence has been achieved in  14 iterations

     Writing output data file ./mytmp/Crdimer0.1425-0.1.save/
 
     init_run     :     18.85s CPU     20.20s WALL (       1 calls)
     electrons    :    515.03s CPU    559.42s WALL (       1 calls)

     Called by init_run:
     wfcinit      :     13.94s CPU     14.71s WALL (       1 calls)
     potinit      :      1.45s CPU      1.54s WALL (       1 calls)
     hinit0       :      1.52s CPU      1.63s WALL (       1 calls)

     Called by electrons:
     c_bands      :    401.58s CPU    426.23s WALL (      14 calls)
     sum_band     :     81.13s CPU     92.22s WALL (      14 calls)
     v_of_rho     :      7.45s CPU      8.21s WALL (      15 calls)
     newd         :     17.63s CPU     25.09s WALL (      15 calls)
     PAW_pot      :      6.76s CPU      7.38s WALL (      15 calls)
     mix_rho      :      0.98s CPU      1.03s WALL (      14 calls)

     Called by c_bands:
     init_us_2    :      4.99s CPU      5.03s WALL (     870 calls)
     cegterg      :    389.26s CPU    413.83s WALL (     420 calls)

     Called by *egterg:
     cdiaghg      :     24.57s CPU     38.44s WALL (    2701 calls)
     h_psi        :    239.96s CPU    249.02s WALL (    2731 calls)
     s_psi        :     26.86s CPU     26.93s WALL (    2731 calls)
     g_psi        :      0.67s CPU      0.69s WALL (    2281 calls)

     Called by h_psi:
     h_psi:calbec :     28.45s CPU     29.17s WALL (    2731 calls)
     vloc_psi     :    182.08s CPU    190.27s WALL (    2731 calls)
     add_vuspsi   :     27.28s CPU     27.41s WALL (    2731 calls)

     General routines
     calbec       :     38.07s CPU     39.00s WALL (    3151 calls)
     fft          :      9.60s CPU     13.81s WALL (     369 calls)
     ffts         :      0.11s CPU      0.13s WALL (      58 calls)
     fftw         :    188.51s CPU    196.90s WALL (  246328 calls)
     interpolate  :      0.40s CPU      0.44s WALL (      30 calls)
 
     Parallel routines
     fft_scatt_xy :     30.44s CPU     31.54s WALL (  246755 calls)
     fft_scatt_yz :     79.34s CPU     87.55s WALL (  246755 calls)
 
     PWSCF        :   8m55.94s CPU   9m44.39s WALL

 
   This run was terminated on:  14: 0: 7   2Apr2021            

=------------------------------------------------------------------------------=
   JOB DONE.
=------------------------------------------------------------------------------=
