
     Program PWSCF v.6.7MaX starts on  2Apr2021 at 16:24:32 

     This program is part of the open-source Quantum ESPRESSO suite
     for quantum simulation of materials; please cite
         "P. Giannozzi et al., J. Phys.:Condens. Matter 21 395502 (2009);
         "P. Giannozzi et al., J. Phys.:Condens. Matter 29 465901 (2017);
          URL http://www.quantum-espresso.org", 
     in publications or presentations arising from this work. More details at
     http://www.quantum-espresso.org/quote

     Parallel version (MPI), running on    48 processors

     MPI processes distributed on     1 nodes
     R & G space division:  proc/nbgrp/npool/nimage =      48
     Reading input from Crdimer0.1435-0.4.scf.in

     Current dimensions of program PWSCF are:
     Max number of different atomic species (ntypx) = 10
     Max number of k-points (npk) =  40000
     Max angular momentum in pseudopotentials (lmaxx) =  3
     file N.pbe-n-kjpaw_psl.1.0.0.UPF: wavefunction(s)  2S renormalized
     file Cr.pbe-spn-kjpaw_psl.1.0.0.UPF: wavefunction(s)  3S 3P 3D renormalized
     file Cr.pbe-spn-kjpaw_psl.1.0.0.UPF: wavefunction(s)  3S 3P 3D renormalized

     --------------------------------------------
     Parameters for DFT-D3 Dispersion Correction:
     --------------------------------------------
       Reference C6 values for interpolation: 

         atom   Coordination number   C6
         B          0.000           214.36
         B          0.971           150.74
         B          1.944           106.23
         B          2.913            62.89
         B          4.586            56.06
         N          0.000            50.54
         N          0.994            44.25
         N          2.014            39.35
         N          2.990            31.16
         Cr1        0.000          1381.48
         Cr1        1.827           571.38
         Cr1       10.619           306.69
         Cr2        0.000          1381.48
         Cr2        1.827           571.38
         Cr2       10.619           306.69

       Values used:

         atom   Coordination number  R0_AB[au]  C6      C8
         B          3.337            3.039     62.89   2505.96
         B          3.336            3.039     62.89   2505.98
         B          3.336            3.039     62.89   2505.99
         B          3.335            3.039     62.89   2506.01
         B          3.354            3.039     62.88   2505.53
         B          3.335            3.039     62.89   2506.00
         N          3.135            2.478     31.22    688.69
         N          3.143            2.478     31.21    688.62
         N          3.135            2.478     31.22    688.68
         N          3.134            2.478     31.22    688.70
         N          3.151            2.478     31.21    688.55
         N          3.135            2.478     31.22    688.69
         N          3.148            2.478     31.21    688.57
         N          3.134            2.478     31.22    688.70
         N          3.134            2.478     31.22    688.70
         B          3.351            3.039     62.88   2505.59
         B          3.336            3.039     62.89   2505.98
         B          3.335            3.039     62.89   2506.00
         B          3.354            3.039     62.88   2505.53
         B          3.337            3.039     62.89   2505.96
         B          3.351            3.039     62.88   2505.59
         N          3.148            2.478     31.21    688.57
         B          3.336            3.039     62.89   2505.99
         B          3.355            3.039     62.88   2505.48
         B          3.336            3.039     62.89   2506.00
         N          3.135            2.478     31.22    688.69
         N          3.143            2.478     31.21    688.62
         N          3.134            2.478     31.22    688.70
         N          3.134            2.478     31.22    688.70
         N          3.135            2.478     31.22    688.68
         N          3.134            2.478     31.22    688.70
         B          3.336            3.039     62.89   2506.00
         Cr1        0.671            3.252   1352.44 124814.98
         Cr2        0.671            3.252   1352.44 124814.98

         Molecular C6 ( Ry / a.u.^6 ) =     78832.66


     Subspace diagonalization in iterative solution of the eigenvalue problem:
     one sub-group per band group will be used
     scalapack distributed-memory algorithm (size of sub-group:  6*  6 procs)

 
     Parallelization info
     --------------------
     sticks:   dense  smooth     PW     G-vecs:    dense   smooth      PW
     Min         235      98     26                36277     9874    1408
     Max         236      99     27                36282     9883    1425
     Sum       11311    4741   1285              1741401   474235   68095
 


     bravais-lattice index     =            4
     lattice parameter (alat)  =      18.9275  a.u.
     unit-cell volume          =   10553.3021 (a.u.)^3
     number of atoms/cell      =           34
     number of atomic types    =            4
     number of electrons       =       156.00
     number of Kohn-Sham states=           94
     kinetic-energy cutoff     =      48.0000  Ry
     charge density cutoff     =     457.0000  Ry
     scf convergence threshold =      1.0E-07
     mixing beta               =       0.5000
     number of iterations used =            8  plain     mixing
     Exchange-correlation= SLA  PW   PBX  PBC
                           (   1   4   3   4   0   0   0)

     celldm(1)=  18.927497  celldm(2)=   0.000000  celldm(3)=   1.797125
     celldm(4)=   0.000000  celldm(5)=   0.000000  celldm(6)=   0.000000

     crystal axes: (cart. coord. in units of alat)
               a(1) = (   1.000000   0.000000   0.000000 )  
               a(2) = (  -0.500000   0.866025   0.000000 )  
               a(3) = (   0.000000   0.000000   1.797125 )  

     reciprocal axes: (cart. coord. in units 2 pi/alat)
               b(1) = (  1.000000  0.577350  0.000000 )  
               b(2) = (  0.000000  1.154701  0.000000 )  
               b(3) = (  0.000000  0.000000  0.556444 )  


     PseudoPot. # 1 for B  read from file:
     /home/sf05/q-e-qe-6.7MaX-Release/pseudo/B.pbe-n-kjpaw_psl.1.0.0.UPF
     MD5 check sum: d9c678ba5d3b2fd7b74e61139c9288d8
     Pseudo is Projector augmented-wave + core cor, Zval =  3.0
     Generated using "atomic" code by A. Dal Corso  v.5.1.2
     Shape of augmentation charge: PSQ
     Using radial grid of 1059 points,  4 beta functions with: 
                l(1) =   0
                l(2) =   0
                l(3) =   1
                l(4) =   1
     Q(r) pseudized with 0 coefficients 


     PseudoPot. # 2 for N  read from file:
     /home/sf05/q-e-qe-6.7MaX-Release/pseudo/N.pbe-n-kjpaw_psl.1.0.0.UPF
     MD5 check sum: e0e4e94a9c4025c5b51bd7d8793849bd
     Pseudo is Projector augmented-wave + core cor, Zval =  5.0
     Generated using "atomic" code by A. Dal Corso  v.5.1.2
     Shape of augmentation charge: PSQ
     Using radial grid of 1085 points,  4 beta functions with: 
                l(1) =   0
                l(2) =   0
                l(3) =   1
                l(4) =   1
     Q(r) pseudized with 0 coefficients 


     PseudoPot. # 3 for Cr read from file:
     /home/sf05/q-e-qe-6.7MaX-Release/pseudo/Cr.pbe-spn-kjpaw_psl.1.0.0.UPF
     MD5 check sum: 198f1a2427a48552563eee314eba32ba
     Pseudo is Projector augmented-wave + core cor, Zval = 14.0
     Generated using &quot;atomic&quot; code by A. Dal Corso  v.6.3
     Shape of augmentation charge: PSQ
     Using radial grid of 1183 points,  6 beta functions with: 
                l(1) =   0
                l(2) =   0
                l(3) =   1
                l(4) =   1
                l(5) =   2
                l(6) =   2
     Q(r) pseudized with 0 coefficients 


     PseudoPot. # 4 for Cr read from file:
     /home/sf05/q-e-qe-6.7MaX-Release/pseudo/Cr.pbe-spn-kjpaw_psl.1.0.0.UPF
     MD5 check sum: 198f1a2427a48552563eee314eba32ba
     Pseudo is Projector augmented-wave + core cor, Zval = 14.0
     Generated using &quot;atomic&quot; code by A. Dal Corso  v.6.3
     Shape of augmentation charge: PSQ
     Using radial grid of 1183 points,  6 beta functions with: 
                l(1) =   0
                l(2) =   0
                l(3) =   1
                l(4) =   1
                l(5) =   2
                l(6) =   2
     Q(r) pseudized with 0 coefficients 


     atomic species   valence    mass     pseudopotential
        B              3.00    10.81100     B ( 1.00)
        N              5.00    14.00674     N ( 1.00)
        Cr1           14.00    51.99610     Cr( 1.00)
        Cr2           14.00    51.99610     Cr( 1.00)

     Starting magnetic structure 
     atomic species   magnetization
        B            0.000
        N            0.000
        Cr1          1.000
        Cr2          1.000

     No symmetry found



   Cartesian axes

     site n.     atom                  positions (alat units)
         1           B   tau(   1) = (  -0.1250000   0.2165064   0.8985623  )
         2           B   tau(   2) = (   0.3750000   0.6495191   0.8985623  )
         3           B   tau(   3) = (   0.2500000   0.0000000   0.8985623  )
         4           B   tau(   4) = (   0.7500000   0.0000000   0.8985623  )
         5           B   tau(   5) = (   0.1250000   0.2165064   0.8985623  )
         6           B   tau(   6) = (  -0.3750000   0.6495191   0.8985623  )
         7           N   tau(   7) = (   0.7500005   0.2886748   0.8985623  )
         8           N   tau(   8) = (   0.3750005   0.5051812   0.8985623  )
         9           N   tau(   9) = (   0.3750005   0.0721685   0.8985623  )
        10           N   tau(  10) = (   0.6250005   0.0721685   0.8985623  )
        11           N   tau(  11) = (   0.2500005   0.2886748   0.8985623  )
        12           N   tau(  12) = (   0.6250005   0.5051812   0.8985623  )
        13           N   tau(  13) = (   0.0000005   0.2886748   0.8985623  )
        14           N   tau(  14) = (   0.2500005   0.7216875   0.8985623  )
        15           N   tau(  15) = (  -0.2499995   0.7216875   0.8985623  )
        16           B   tau(  16) = (   0.0000000   0.4330127   0.8985623  )
        17           B   tau(  17) = (   0.1250000   0.6495191   0.8985623  )
        18           B   tau(  18) = (  -0.1250000   0.6495191   0.8985623  )
        19           B   tau(  19) = (   0.3750000   0.2165064   0.8985623  )
        20           B   tau(  20) = (   0.6250000   0.2165064   0.8985623  )
        21           B   tau(  21) = (   0.5000000   0.4330127   0.8985623  )
        22           N   tau(  22) = (   0.5000005   0.2886748   0.8985623  )
        23           B   tau(  23) = (  -0.2500000   0.4330127   0.8985623  )
        24           B   tau(  24) = (   0.2500000   0.4330127   0.8985623  )
        25           B   tau(  25) = (   0.5000000   0.0000000   0.8985623  )
        26           N   tau(  26) = (  -0.1249995   0.5051812   0.8985623  )
        27           N   tau(  27) = (   0.1250005   0.5051812   0.8985623  )
        28           N   tau(  28) = (   0.0000005   0.7216875   0.8985623  )
        29           N   tau(  29) = (   0.5000005   0.7216875   0.8985623  )
        30           N   tau(  30) = (   0.1250005   0.0721685   0.8985623  )
        31           N   tau(  31) = (   0.8750005   0.0721685   0.8985623  )
        32           B   tau(  32) = (   0.0000000   0.0000000   0.8985623  )
        33           Cr1 tau(  33) = (   0.3935000   0.3464102   1.2040735  )
        34           Cr2 tau(  34) = (   0.1065000   0.3464102   1.2040735  )

     number of k points=    15  Gaussian smearing, width (Ry)=  0.0000
                       cart. coord. in units 2pi/alat
        k(    1) = (   0.1666667   0.2886751   0.0000000), wk =   0.0740741
        k(    2) = (   0.1666667  -0.4811252   0.0000000), wk =   0.0740741
        k(    3) = (   0.1666667  -0.0962250   0.0000000), wk =   0.0740741
        k(    4) = (  -0.5000000  -0.8660254   0.0000000), wk =   0.0370370
        k(    5) = (  -0.1666667   0.2886751   0.0000000), wk =   0.0740741
        k(    6) = (   0.3333333   0.0000000   0.0000000), wk =   0.0740741
        k(    7) = (  -0.1666667  -0.4811252   0.0000000), wk =   0.0740741
        k(    8) = (   0.5000000  -0.0962250   0.0000000), wk =   0.0740741
        k(    9) = (  -0.3333333  -0.3849002   0.0000000), wk =   0.0740741
        k(   10) = (   0.5000000   0.0962250   0.0000000), wk =   0.0740741
        k(   11) = (  -0.3333333   0.3849002   0.0000000), wk =   0.0740741
        k(   12) = (  -0.1666667  -0.0962250   0.0000000), wk =   0.0740741
        k(   13) = (  -0.0000000  -0.1924501   0.0000000), wk =   0.0740741
        k(   14) = (   0.5000000  -0.8660254   0.0000000), wk =   0.0370370
        k(   15) = (  -1.0000000   0.0000000   0.0000000), wk =   0.0370370

     Dense  grid:  1741401 G-vectors     FFT dimensions: ( 135, 135, 240)

     Smooth grid:   474235 G-vectors     FFT dimensions: (  90,  90, 160)

     Estimated max dynamical RAM per process >     218.62 MB

     Estimated total dynamical RAM >      10.25 GB
     Generating pointlists ...
     new r_m :   0.0595 (alat units)  1.1269 (a.u.) for type    1
     new r_m :   0.0595 (alat units)  1.1269 (a.u.) for type    2
     new r_m :   0.1184 (alat units)  2.2408 (a.u.) for type    3
     new r_m :   0.1184 (alat units)  2.2408 (a.u.) for type    4

     Initial potential from superposition of free atoms

     starting charge  155.99382, renormalised to  156.00000

     negative rho (up, down):  6.709E-03 4.655E-04
     Starting wfcs are  148 randomized atomic wfcs
     Checking if some PAW data can be deallocated... 

     total cpu time spent up to now is       20.5 secs

     Self-consistent Calculation

     iteration #  1     ecut=    48.00 Ry     beta= 0.50
     Davidson diagonalization with overlap
     ethr =  1.00E-02,  avg # of iterations =  2.8

     negative rho (up, down):  4.896E-03 2.920E-03

     total cpu time spent up to now is       64.4 secs

     total energy              =   -1130.73811256 Ry
     estimated scf accuracy    <      11.36880947 Ry

     total magnetization       =    12.00 Bohr mag/cell
     absolute magnetization    =    12.12 Bohr mag/cell

     iteration #  2     ecut=    48.00 Ry     beta= 0.50
     Davidson diagonalization with overlap
     ethr =  7.29E-03,  avg # of iterations =  2.8

     negative rho (up, down):  8.837E-03 7.936E-03

     total cpu time spent up to now is      105.4 secs

     total energy              =   -1132.92436431 Ry
     estimated scf accuracy    <       3.77221856 Ry

     total magnetization       =    10.00 Bohr mag/cell
     absolute magnetization    =    10.08 Bohr mag/cell

     iteration #  3     ecut=    48.00 Ry     beta= 0.50
     Davidson diagonalization with overlap
     ethr =  2.42E-03,  avg # of iterations =  7.0

     negative rho (up, down):  4.032E-03 4.057E-03

     total cpu time spent up to now is      147.3 secs

     total energy              =   -1133.56917029 Ry
     estimated scf accuracy    <       0.83093626 Ry

     total magnetization       =    12.00 Bohr mag/cell
     absolute magnetization    =    12.06 Bohr mag/cell

     iteration #  4     ecut=    48.00 Ry     beta= 0.50
     Davidson diagonalization with overlap
     ethr =  5.33E-04,  avg # of iterations =  6.6

     negative rho (up, down):  6.750E-03 7.502E-03

     total cpu time spent up to now is      187.5 secs

     total energy              =   -1133.78759215 Ry
     estimated scf accuracy    <       0.43058466 Ry

     total magnetization       =    10.00 Bohr mag/cell
     absolute magnetization    =    10.02 Bohr mag/cell

     iteration #  5     ecut=    48.00 Ry     beta= 0.50
     Davidson diagonalization with overlap
     ethr =  2.76E-04,  avg # of iterations =  6.5

     negative rho (up, down):  4.956E-03 5.279E-03

     total cpu time spent up to now is      228.1 secs

     total energy              =   -1133.81931420 Ry
     estimated scf accuracy    <       0.02565020 Ry

     total magnetization       =    10.00 Bohr mag/cell
     absolute magnetization    =    10.03 Bohr mag/cell

     iteration #  6     ecut=    48.00 Ry     beta= 0.50
     Davidson diagonalization with overlap
     c_bands:  1 eigenvalues not converged
     c_bands:  1 eigenvalues not converged
     c_bands:  1 eigenvalues not converged
     c_bands:  1 eigenvalues not converged
     ethr =  1.64E-05,  avg # of iterations = 13.3

     negative rho (up, down):  3.735E-03 3.918E-03

     total cpu time spent up to now is      283.5 secs

     total energy              =   -1133.82367623 Ry
     estimated scf accuracy    <       0.01310096 Ry

     total magnetization       =    10.00 Bohr mag/cell
     absolute magnetization    =    10.03 Bohr mag/cell

     iteration #  7     ecut=    48.00 Ry     beta= 0.50
     Davidson diagonalization with overlap
     ethr =  8.40E-06,  avg # of iterations =  6.5

     negative rho (up, down):  3.439E-03 3.837E-03

     total cpu time spent up to now is      326.8 secs

     total energy              =   -1133.82720321 Ry
     estimated scf accuracy    <       0.00395432 Ry

     total magnetization       =    10.00 Bohr mag/cell
     absolute magnetization    =    10.02 Bohr mag/cell

     iteration #  8     ecut=    48.00 Ry     beta= 0.50
     Davidson diagonalization with overlap
     ethr =  2.53E-06,  avg # of iterations =  8.3

     negative rho (up, down):  3.210E-03 3.724E-03

     total cpu time spent up to now is      370.7 secs

     total energy              =   -1133.82806441 Ry
     estimated scf accuracy    <       0.00068455 Ry

     total magnetization       =    10.00 Bohr mag/cell
     absolute magnetization    =    10.01 Bohr mag/cell

     iteration #  9     ecut=    48.00 Ry     beta= 0.50
     Davidson diagonalization with overlap
     ethr =  4.39E-07,  avg # of iterations =  3.2

     negative rho (up, down):  3.168E-03 3.731E-03

     total cpu time spent up to now is      405.1 secs

     total energy              =   -1133.82828172 Ry
     estimated scf accuracy    <       0.00008286 Ry

     total magnetization       =    10.00 Bohr mag/cell
     absolute magnetization    =    10.01 Bohr mag/cell

     iteration # 10     ecut=    48.00 Ry     beta= 0.50
     Davidson diagonalization with overlap
     ethr =  5.31E-08,  avg # of iterations =  3.9

     negative rho (up, down):  3.147E-03 3.745E-03

     total cpu time spent up to now is      445.9 secs

     total energy              =   -1133.82836161 Ry
     estimated scf accuracy    <       0.00003030 Ry

     total magnetization       =    10.00 Bohr mag/cell
     absolute magnetization    =    10.01 Bohr mag/cell

     iteration # 11     ecut=    48.00 Ry     beta= 0.50
     Davidson diagonalization with overlap
     ethr =  1.94E-08,  avg # of iterations =  4.2

     negative rho (up, down):  3.141E-03 3.766E-03

     total cpu time spent up to now is      482.6 secs

     total energy              =   -1133.82839451 Ry
     estimated scf accuracy    <       0.00000738 Ry

     total magnetization       =    10.00 Bohr mag/cell
     absolute magnetization    =    10.01 Bohr mag/cell

     iteration # 12     ecut=    48.00 Ry     beta= 0.50
     Davidson diagonalization with overlap
     ethr =  4.73E-09,  avg # of iterations =  4.8

     negative rho (up, down):  3.138E-03 3.786E-03

     total cpu time spent up to now is      521.0 secs

     total energy              =   -1133.82840661 Ry
     estimated scf accuracy    <       0.00000334 Ry

     total magnetization       =    10.00 Bohr mag/cell
     absolute magnetization    =    10.01 Bohr mag/cell

     iteration # 13     ecut=    48.00 Ry     beta= 0.50
     Davidson diagonalization with overlap
     ethr =  2.14E-09,  avg # of iterations =  4.8

     negative rho (up, down):  3.133E-03 3.791E-03

     total cpu time spent up to now is      558.7 secs

     total energy              =   -1133.82841217 Ry
     estimated scf accuracy    <       0.00000027 Ry

     total magnetization       =    10.00 Bohr mag/cell
     absolute magnetization    =    10.01 Bohr mag/cell

     iteration # 14     ecut=    48.00 Ry     beta= 0.50
     Davidson diagonalization with overlap
     ethr =  1.73E-10,  avg # of iterations =  5.3

     negative rho (up, down):  3.132E-03 3.791E-03
 
     Magnetic moment per site:
     atom:    1    charge:    0.8808    magn:    0.0008    constr:    0.0000
     atom:    2    charge:    0.8802    magn:    0.0006    constr:    0.0000
     atom:    3    charge:    0.8800    magn:    0.0001    constr:    0.0000
     atom:    4    charge:    0.8804    magn:    0.0001    constr:    0.0000
     atom:    5    charge:    0.8801    magn:    0.0002    constr:    0.0000
     atom:    6    charge:    0.8804    magn:    0.0001    constr:    0.0000
     atom:    7    charge:    2.8610    magn:    0.0004    constr:    0.0000
     atom:    8    charge:    2.8607    magn:    0.0043    constr:    0.0000
     atom:    9    charge:    2.8607    magn:    0.0016    constr:    0.0000
     atom:   10    charge:    2.8609    magn:    0.0004    constr:    0.0000
     atom:   11    charge:    2.8605    magn:    0.0070    constr:    0.0000
     atom:   12    charge:    2.8610    magn:    0.0009    constr:    0.0000
     atom:   13    charge:    2.8596    magn:    0.0052    constr:    0.0000
     atom:   14    charge:    2.8598    magn:    0.0003    constr:    0.0000
     atom:   15    charge:    2.8599    magn:    0.0000    constr:    0.0000
     atom:   16    charge:    0.8805    magn:   -0.0000    constr:    0.0000
     atom:   17    charge:    0.8799    magn:    0.0006    constr:    0.0000
     atom:   18    charge:    0.8800    magn:    0.0001    constr:    0.0000
     atom:   19    charge:    0.8796    magn:    0.0002    constr:    0.0000
     atom:   20    charge:    0.8802    magn:    0.0008    constr:    0.0000
     atom:   21    charge:    0.8802    magn:   -0.0000    constr:    0.0000
     atom:   22    charge:    2.8608    magn:    0.0052    constr:    0.0000
     atom:   23    charge:    0.8804    magn:    0.0001    constr:    0.0000
     atom:   24    charge:    0.8789    magn:   -0.0002    constr:    0.0000
     atom:   25    charge:    0.8799    magn:    0.0001    constr:    0.0000
     atom:   26    charge:    2.8599    magn:    0.0009    constr:    0.0000
     atom:   27    charge:    2.8595    magn:    0.0043    constr:    0.0000
     atom:   28    charge:    2.8598    magn:    0.0002    constr:    0.0000
     atom:   29    charge:    2.8596    magn:    0.0002    constr:    0.0000
     atom:   30    charge:    2.8594    magn:    0.0016    constr:    0.0000
     atom:   31    charge:    2.8596    magn:    0.0004    constr:    0.0000
     atom:   32    charge:    0.8802    magn:    0.0001    constr:    0.0000
     atom:   33    charge:   12.5571    magn:    4.2662    constr:    0.0000
     atom:   34    charge:   12.5571    magn:    4.2662    constr:    0.0000

     total cpu time spent up to now is      598.0 secs

     End of self-consistent calculation

 ------ SPIN UP ------------


          k = 0.1667 0.2887 0.0000 ( 59267 PWs)   bands (ev):

   -72.8774 -72.8706 -44.4212 -44.3517 -44.2820 -44.2753 -44.2512 -44.2442
   -21.2521 -20.6663 -20.6601 -20.1143 -20.0965 -19.5931 -19.5869 -19.1043
   -18.7033 -18.6958 -18.4668 -18.4506 -18.1997 -18.0904 -18.0816 -17.8541
   -12.4896 -12.2150 -12.2032 -11.8264 -11.8222 -11.6636 -11.1972 -11.1938
   -10.3971 -10.3725 -10.1229 -10.1193  -9.5940  -9.5930  -8.8446  -8.8303
    -8.8250  -8.7723  -8.7654  -8.6011  -8.2018  -8.0540  -8.0220  -7.8357
    -7.8306  -7.4436  -7.4415  -7.2923  -7.2566  -7.2135  -7.2109  -6.9698
    -6.9555  -6.5680  -6.5442  -6.1588  -6.1575  -5.8753  -5.4232  -5.2967
    -5.2822  -5.2050  -4.9232  -4.8979  -4.5100  -4.3610  -4.3436  -3.9833
    -2.8361  -2.0172  -1.9409  -1.8201  -1.6277  -1.5923  -1.4896  -1.4735
    -1.4237  -1.3840  -1.3251  -0.7394   0.6763   0.9459   1.0617   1.1597
     1.2722   1.4629   1.4950   1.5802   1.5984   1.7763

          k = 0.1667-0.4811 0.0000 ( 59291 PWs)   bands (ev):

   -72.8774 -72.8706 -44.4213 -44.3517 -44.2820 -44.2753 -44.2512 -44.2442
   -21.1221 -20.9164 -20.7281 -20.1660 -19.8092 -19.4715 -19.3214 -19.1800
   -19.0189 -18.7841 -18.6469 -18.5479 -18.1545 -18.0925 -17.9270 -17.7283
   -12.3539 -12.1189 -12.0494 -11.9111 -11.6856 -11.6633 -11.5575 -10.9465
   -10.8955 -10.6288 -10.5276  -9.8654  -9.6982  -9.3409  -9.1159  -8.6724
    -8.6280  -8.5582  -8.3936  -8.3704  -8.1663  -8.1279  -8.0683  -8.0546
    -7.6939  -7.6282  -7.4993  -7.4786  -7.3608  -7.1757  -7.0724  -6.8643
    -6.6269  -6.3930  -6.1804  -6.1626  -5.9772  -5.9340  -5.7886  -5.7485
    -5.4560  -5.4031  -5.2148  -5.0444  -4.4489  -4.3503  -4.0936  -3.7708
    -2.8329  -2.0172  -1.9410  -1.8165  -1.6267  -1.5920  -1.4926  -1.4742
    -1.4240  -1.3837  -1.3258  -0.7437   0.5860   0.9342   1.0781   1.1191
     1.2128   1.2352   1.3591   1.8372   1.9080   2.1215

          k = 0.1667-0.0962 0.0000 ( 59226 PWs)   bands (ev):

   -72.8774 -72.8706 -44.4212 -44.3517 -44.2820 -44.2752 -44.2512 -44.2442
   -21.3184 -20.5414 -20.3503 -20.3435 -19.9931 -19.9861 -19.8099 -18.7335
   -18.7286 -18.3832 -18.3675 -18.3629 -18.2776 -18.2615 -18.0814 -18.0755
   -12.5153 -12.5048 -12.4129 -11.5866 -11.5814 -11.4360 -11.4207 -10.9310
   -10.9287  -9.9335  -9.9319  -9.6810  -9.3829  -9.3745  -9.2349  -9.2331
    -9.0467  -9.0450  -8.9277  -8.3278  -8.3269  -7.9080  -7.9026  -7.8858
    -7.8499  -7.7751  -7.6125  -7.5867  -7.1378  -7.0977  -6.9644  -6.8927
    -6.8904  -6.8546  -6.5355  -6.5336  -6.2622  -5.3510  -5.3248  -5.1481
    -5.0701  -4.8151  -4.7946  -4.7616  -4.6243  -4.6032  -4.3565  -4.3356
    -2.8395  -2.0173  -1.9408  -1.8236  -1.6297  -1.5926  -1.4868  -1.4728
    -1.4235  -1.3843  -1.3245  -0.7349   0.7856   0.9207   1.0111   1.1791
     1.2678   1.3242   1.5693   1.5803   1.6954   1.9090

          k =-0.5000-0.8660 0.0000 ( 59292 PWs)   bands (ev):

   -72.8774 -72.8706 -44.4213 -44.3517 -44.2820 -44.2753 -44.2511 -44.2442
   -21.0563 -21.0504 -20.4744 -20.4687 -19.4350 -19.4285 -19.4151 -19.4113
   -18.9980 -18.9923 -18.3331 -18.3306 -18.3212 -18.3099 -17.7976 -17.7934
   -12.0776 -12.0741 -12.0690 -12.0604 -11.8832 -11.8782 -11.3346 -11.3318
   -10.2394 -10.2377 -10.1408 -10.1362 -10.1343 -10.1309  -8.5909  -8.5554
    -8.5530  -8.5510  -8.5497  -8.5430  -7.8692  -7.8673  -7.8660  -7.8627
    -7.8270  -7.8248  -7.7838  -7.7589  -7.4964  -7.4893  -6.6154  -6.6136
    -6.3629  -6.3269  -6.3218  -6.2963  -6.1958  -6.1909  -5.7103  -5.7058
    -5.5518  -5.5451  -4.7311  -4.7164  -4.7115  -4.6923  -3.8902  -3.8729
    -2.8200  -2.0154  -1.9412  -1.8189  -1.6272  -1.5933  -1.4935  -1.4755
    -1.4282  -1.3881  -1.3243  -0.8639   0.7711   1.0561   1.0915   1.1874
     1.4156   1.5336   1.5857   1.6126   1.6400   1.7617

          k =-0.1667 0.2887 0.0000 ( 59267 PWs)   bands (ev):

   -72.8774 -72.8706 -44.4212 -44.3517 -44.2820 -44.2753 -44.2512 -44.2442
   -21.2521 -20.6663 -20.6601 -20.1143 -20.0965 -19.5931 -19.5868 -19.1043
   -18.7033 -18.6958 -18.4668 -18.4506 -18.1997 -18.0904 -18.0815 -17.8541
   -12.4896 -12.2150 -12.2032 -11.8264 -11.8222 -11.6636 -11.1972 -11.1938
   -10.3971 -10.3725 -10.1230 -10.1193  -9.5940  -9.5929  -8.8446  -8.8303
    -8.8250  -8.7723  -8.7654  -8.6011  -8.2019  -8.0540  -8.0220  -7.8357
    -7.8306  -7.4436  -7.4416  -7.2923  -7.2566  -7.2135  -7.2109  -6.9699
    -6.9556  -6.5679  -6.5442  -6.1589  -6.1574  -5.8753  -5.4233  -5.2967
    -5.2822  -5.2049  -4.9232  -4.8979  -4.5100  -4.3610  -4.3436  -3.9833
    -2.8361  -2.0172  -1.9409  -1.8201  -1.6277  -1.5923  -1.4896  -1.4735
    -1.4237  -1.3840  -1.3251  -0.7394   0.6763   0.9459   1.0617   1.1597
     1.2722   1.4629   1.4950   1.5801   1.5984   1.7763

          k = 0.3333 0.0000 0.0000 ( 59267 PWs)   bands (ev):

   -72.8774 -72.8706 -44.4212 -44.3517 -44.2821 -44.2752 -44.2512 -44.2442
   -21.2516 -20.6928 -20.6334 -20.1141 -20.0951 -19.6201 -19.5619 -19.1066
   -18.7204 -18.6731 -18.4688 -18.4507 -18.1949 -18.1140 -18.0651 -17.8532
   -12.4885 -12.2165 -12.2021 -11.8364 -11.8151 -11.6616 -11.2157 -11.1751
   -10.3962 -10.3721 -10.1370 -10.1063  -9.6006  -9.5849  -8.8469  -8.8321
    -8.8181  -8.7945  -8.7445  -8.6018  -8.2041  -8.1074  -7.9680  -7.8339
    -7.8298  -7.4500  -7.4351  -7.2969  -7.2464  -7.2234  -7.2005  -6.9710
    -6.9562  -6.6236  -6.4960  -6.1616  -6.1537  -5.8824  -5.4233  -5.3138
    -5.2528  -5.2053  -4.9333  -4.8907  -4.5008  -4.3916  -4.3263  -3.9820
    -2.8278  -2.0158  -1.9411  -1.8218  -1.6291  -1.5932  -1.4901  -1.4740
    -1.4258  -1.3870  -1.3242  -0.8230   0.8059   1.0482   1.1558   1.2411
     1.2932   1.4451   1.5084   1.5581   1.5885   1.7628

          k =-0.1667-0.4811 0.0000 ( 59291 PWs)   bands (ev):

   -72.8774 -72.8706 -44.4213 -44.3517 -44.2820 -44.2753 -44.2512 -44.2442
   -21.1221 -20.9164 -20.7281 -20.1660 -19.8092 -19.4714 -19.3214 -19.1800
   -19.0189 -18.7841 -18.6469 -18.5479 -18.1545 -18.0925 -17.9270 -17.7283
   -12.3539 -12.1189 -12.0495 -11.9111 -11.6856 -11.6633 -11.5575 -10.9465
   -10.8956 -10.6288 -10.5275  -9.8654  -9.6982  -9.3409  -9.1159  -8.6724
    -8.6280  -8.5582  -8.3936  -8.3704  -8.1663  -8.1279  -8.0683  -8.0547
    -7.6939  -7.6282  -7.4993  -7.4786  -7.3608  -7.1756  -7.0723  -6.8643
    -6.6269  -6.3930  -6.1804  -6.1626  -5.9772  -5.9339  -5.7885  -5.7485
    -5.4561  -5.4031  -5.2148  -5.0444  -4.4489  -4.3503  -4.0936  -3.7708
    -2.8329  -2.0172  -1.9410  -1.8165  -1.6267  -1.5920  -1.4926  -1.4742
    -1.4240  -1.3837  -1.3258  -0.7437   0.5860   0.9342   1.0782   1.1191
     1.2128   1.2352   1.3591   1.8372   1.9079   2.1212

          k = 0.5000-0.0962 0.0000 ( 59291 PWs)   bands (ev):

   -72.8774 -72.8706 -44.4212 -44.3517 -44.2820 -44.2753 -44.2512 -44.2442
   -21.1189 -20.9253 -20.7223 -20.1640 -19.8093 -19.4732 -19.3288 -19.1740
   -19.0201 -18.7845 -18.6358 -18.5549 -18.1417 -18.1106 -17.9233 -17.7280
   -12.3518 -12.1198 -12.0473 -11.9160 -11.6995 -11.6473 -11.5597 -10.9477
   -10.8925 -10.6264 -10.5305  -9.8632  -9.6987  -9.3419  -9.1152  -8.6609
    -8.6289  -8.5557  -8.4038  -8.3982  -8.1640  -8.1067  -8.0823  -8.0417
    -7.6894  -7.6289  -7.4981  -7.4801  -7.3542  -7.1769  -7.0734  -6.8641
    -6.6274  -6.4006  -6.2009  -6.1620  -5.9605  -5.9334  -5.7877  -5.7512
    -5.4573  -5.4021  -5.1897  -5.0605  -4.4241  -4.3827  -4.0888  -3.7707
    -2.8201  -2.0154  -1.9412  -1.8189  -1.6277  -1.5933  -1.4935  -1.4755
    -1.4281  -1.3881  -1.3244  -0.8637   0.7551   1.0368   1.1177   1.1812
     1.2824   1.3349   1.5181   1.7555   1.8376   1.8761

          k =-0.3333-0.3849 0.0000 ( 59291 PWs)   bands (ev):

   -72.8774 -72.8706 -44.4212 -44.3517 -44.2820 -44.2753 -44.2512 -44.2442
   -21.1200 -20.9222 -20.7245 -20.1638 -19.8114 -19.4713 -19.3230 -19.1777
   -19.0237 -18.7823 -18.6373 -18.5541 -18.1442 -18.1074 -17.9234 -17.7283
   -12.3532 -12.1166 -12.0504 -11.9139 -11.6874 -11.6614 -11.5587 -10.9473
   -10.8928 -10.6259 -10.5310  -9.8635  -9.6987  -9.3418  -9.1163  -8.6647
    -8.6271  -8.5578  -8.3957  -8.3911  -8.1658  -8.1146  -8.0681  -8.0575
    -7.6900  -7.6270  -7.5057  -7.4730  -7.3529  -7.1770  -7.0740  -6.8719
    -6.6253  -6.3934  -6.1831  -6.1647  -5.9725  -5.9319  -5.7878  -5.7624
    -5.4571  -5.3958  -5.1904  -5.0612  -4.4275  -4.3791  -4.0883  -3.7709
    -2.8244  -2.0161  -1.9411  -1.8181  -1.6270  -1.5929  -1.4930  -1.4751
    -1.4270  -1.3866  -1.3249  -0.8270   0.6965   1.0389   1.1090   1.1543
     1.2313   1.3485   1.3759   1.8165   1.8904   1.9196

          k = 0.5000 0.0962 0.0000 ( 59291 PWs)   bands (ev):

   -72.8774 -72.8706 -44.4212 -44.3517 -44.2820 -44.2753 -44.2512 -44.2442
   -21.1189 -20.9252 -20.7223 -20.1640 -19.8093 -19.4732 -19.3288 -19.1740
   -19.0201 -18.7845 -18.6358 -18.5549 -18.1417 -18.1106 -17.9233 -17.7280
   -12.3518 -12.1198 -12.0473 -11.9160 -11.6995 -11.6473 -11.5597 -10.9476
   -10.8925 -10.6265 -10.5305  -9.8632  -9.6987  -9.3418  -9.1152  -8.6609
    -8.6289  -8.5558  -8.4038  -8.3982  -8.1640  -8.1067  -8.0822  -8.0416
    -7.6895  -7.6289  -7.4981  -7.4802  -7.3542  -7.1770  -7.0734  -6.8641
    -6.6273  -6.4006  -6.2009  -6.1619  -5.9605  -5.9334  -5.7878  -5.7512
    -5.4574  -5.4021  -5.1897  -5.0604  -4.4241  -4.3827  -4.0888  -3.7707
    -2.8201  -2.0154  -1.9412  -1.8189  -1.6277  -1.5933  -1.4935  -1.4755
    -1.4281  -1.3881  -1.3244  -0.8637   0.7551   1.0368   1.1177   1.1812
     1.2824   1.3349   1.5181   1.7554   1.8376   1.8760

          k =-0.3333 0.3849 0.0000 ( 59291 PWs)   bands (ev):

   -72.8774 -72.8706 -44.4212 -44.3517 -44.2820 -44.2753 -44.2512 -44.2442
   -21.1200 -20.9222 -20.7245 -20.1638 -19.8114 -19.4713 -19.3231 -19.1777
   -19.0236 -18.7823 -18.6373 -18.5541 -18.1442 -18.1074 -17.9234 -17.7283
   -12.3532 -12.1166 -12.0504 -11.9139 -11.6874 -11.6614 -11.5586 -10.9473
   -10.8928 -10.6259 -10.5310  -9.8635  -9.6987  -9.3418  -9.1163  -8.6647
    -8.6272  -8.5578  -8.3958  -8.3911  -8.1658  -8.1146  -8.0681  -8.0574
    -7.6899  -7.6270  -7.5057  -7.4730  -7.3529  -7.1770  -7.0741  -6.8719
    -6.6253  -6.3934  -6.1831  -6.1648  -5.9725  -5.9320  -5.7878  -5.7624
    -5.4570  -5.3958  -5.1904  -5.0612  -4.4276  -4.3791  -4.0883  -3.7709
    -2.8244  -2.0161  -1.9411  -1.8181  -1.6270  -1.5929  -1.4930  -1.4751
    -1.4270  -1.3866  -1.3249  -0.8270   0.6965   1.0389   1.1090   1.1542
     1.2313   1.3485   1.3758   1.8165   1.8905   1.9196

          k =-0.1667-0.0962 0.0000 ( 59226 PWs)   bands (ev):

   -72.8774 -72.8706 -44.4212 -44.3517 -44.2820 -44.2752 -44.2512 -44.2442
   -21.3184 -20.5414 -20.3503 -20.3435 -19.9931 -19.9861 -19.8099 -18.7335
   -18.7286 -18.3832 -18.3675 -18.3629 -18.2776 -18.2615 -18.0814 -18.0755
   -12.5154 -12.5048 -12.4129 -11.5866 -11.5814 -11.4361 -11.4207 -10.9310
   -10.9287  -9.9336  -9.9319  -9.6809  -9.3829  -9.3745  -9.2349  -9.2332
    -9.0467  -9.0450  -8.9277  -8.3278  -8.3269  -7.9080  -7.9025  -7.8858
    -7.8498  -7.7752  -7.6125  -7.5867  -7.1378  -7.0977  -6.9645  -6.8927
    -6.8903  -6.8546  -6.5354  -6.5335  -6.2623  -5.3510  -5.3248  -5.1480
    -5.0702  -4.8151  -4.7946  -4.7617  -4.6243  -4.6031  -4.3565  -4.3357
    -2.8395  -2.0173  -1.9408  -1.8236  -1.6297  -1.5926  -1.4868  -1.4728
    -1.4235  -1.3843  -1.3245  -0.7349   0.7856   0.9207   1.0111   1.1791
     1.2678   1.3243   1.5694   1.5803   1.6954   1.9090

          k =-0.0000-0.1925 0.0000 ( 59226 PWs)   bands (ev):

   -72.8774 -72.8706 -44.4212 -44.3517 -44.2820 -44.2753 -44.2512 -44.2442
   -21.3186 -20.5355 -20.3637 -20.3402 -19.9943 -19.9763 -19.8143 -18.7389
   -18.7187 -18.4088 -18.3703 -18.3558 -18.2581 -18.2581 -18.0905 -18.0726
   -12.5172 -12.5039 -12.4120 -11.5916 -11.5773 -11.4349 -11.4194 -10.9335
   -10.9280  -9.9368  -9.9290  -9.6810  -9.3829  -9.3725  -9.2363  -9.2328
    -9.0464  -9.0459  -8.9284  -8.3300  -8.3240  -7.9081  -7.9019  -7.8660
    -7.8475  -7.7772  -7.6442  -7.5916  -7.1194  -7.0870  -6.9627  -6.8968
    -6.8881  -6.8681  -6.5387  -6.5293  -6.2630  -5.3509  -5.3140  -5.1483
    -5.0698  -4.8657  -4.7905  -4.7526  -4.5977  -4.5923  -4.3675  -4.3354
    -2.8435  -2.0180  -1.9407  -1.8227  -1.6290  -1.5922  -1.4868  -1.4726
    -1.4226  -1.3828  -1.3249  -0.6863   0.6940   0.8478   1.0080   1.1526
     1.2187   1.3794   1.5518   1.6038   1.6895   1.9617

          k = 0.5000-0.8660 0.0000 ( 59292 PWs)   bands (ev):

   -72.8774 -72.8706 -44.4213 -44.3517 -44.2820 -44.2753 -44.2511 -44.2442
   -21.0564 -21.0504 -20.4744 -20.4687 -19.4350 -19.4285 -19.4151 -19.4113
   -18.9981 -18.9922 -18.3332 -18.3305 -18.3213 -18.3098 -17.7976 -17.7934
   -12.0777 -12.0741 -12.0691 -12.0603 -11.8832 -11.8782 -11.3346 -11.3317
   -10.2394 -10.2377 -10.1408 -10.1362 -10.1343 -10.1309  -8.5909  -8.5553
    -8.5531  -8.5510  -8.5497  -8.5429  -7.8692  -7.8673  -7.8660  -7.8627
    -7.8270  -7.8248  -7.7838  -7.7589  -7.4965  -7.4894  -6.6154  -6.6136
    -6.3629  -6.3269  -6.3218  -6.2963  -6.1959  -6.1907  -5.7103  -5.7058
    -5.5519  -5.5452  -4.7312  -4.7164  -4.7115  -4.6924  -3.8902  -3.8729
    -2.8200  -2.0154  -1.9412  -1.8189  -1.6272  -1.5933  -1.4935  -1.4755
    -1.4282  -1.3881  -1.3243  -0.8639   0.7711   1.0561   1.0915   1.1874
     1.4156   1.5336   1.5856   1.6126   1.6400   1.7614

          k =-1.0000 0.0000 0.0000 ( 59292 PWs)   bands (ev):

   -72.8774 -72.8706 -44.4213 -44.3518 -44.2820 -44.2753 -44.2512 -44.2441
   -21.0816 -21.0219 -20.4852 -20.4632 -19.4471 -19.4138 -19.4127 -19.4092
   -19.0204 -18.9728 -18.3819 -18.3344 -18.2965 -18.2821 -17.8058 -17.7874
   -12.1175 -12.0780 -12.0477 -12.0344 -11.8895 -11.8721 -11.3560 -11.3118
   -10.2552 -10.2392 -10.1384 -10.1367 -10.1281 -10.1242  -8.6366  -8.5837
    -8.5617  -8.5301  -8.5201  -8.4938  -7.8861  -7.8786  -7.8647  -7.8560
    -7.8219  -7.8162  -7.7994  -7.7581  -7.5205  -7.4681  -6.6198  -6.6061
    -6.3739  -6.3164  -6.3056  -6.2896  -6.2148  -6.1750  -5.7429  -5.6823
    -5.5726  -5.5248  -4.8248  -4.7165  -4.6732  -4.6399  -3.8984  -3.8671
    -2.8371  -2.0176  -1.9409  -1.8157  -1.6266  -1.5915  -1.4925  -1.4735
    -1.4222  -1.3823  -1.3262  -0.6958   0.5433   0.8229   1.0961   1.1201
     1.1466   1.4633   1.5516   1.6217   1.6344   1.9370

 ------ SPIN DOWN ----------


          k = 0.1667 0.2887 0.0000 ( 59267 PWs)   bands (ev):

   -68.6756 -68.6677 -40.3464 -40.2636 -40.1050 -40.0969 -40.0412 -40.0327
   -21.2482 -20.6633 -20.6557 -20.1101 -20.0931 -19.5903 -19.5821 -19.1004
   -18.6998 -18.6906 -18.4626 -18.4470 -18.1950 -18.0869 -18.0778 -17.8500
   -12.4871 -12.2122 -12.2011 -11.8242 -11.8199 -11.6614 -11.1950 -11.1908
   -10.3943 -10.3700 -10.1207 -10.1161  -9.5917  -9.5903  -8.8331  -8.8223
    -8.8195  -8.7704  -8.7625  -8.5988  -8.1996  -8.0308  -8.0122  -7.8332
    -7.8283  -7.4405  -7.4383  -7.2730  -7.2441  -7.2116  -7.2080  -6.9672
    -6.9534  -6.5474  -6.5359  -6.1563  -6.1549  -5.8599  -5.4203  -5.2783
    -5.2672  -5.2023  -4.9084  -4.8862  -4.4943  -4.3466  -4.3337  -3.9699
    -1.4293   0.3797   0.8909   1.0695   1.1099   1.1966   1.2673   1.3274
     1.4176   1.4953   1.5325   1.5716   1.6300   1.7283   1.8806   2.0018
     2.0414   2.1186   2.1505   2.1908   2.2546   2.3260

          k = 0.1667-0.4811 0.0000 ( 59291 PWs)   bands (ev):

   -68.6756 -68.6677 -40.3464 -40.2636 -40.1050 -40.0969 -40.0412 -40.0327
   -21.1180 -20.9133 -20.7242 -20.1620 -19.8055 -19.4676 -19.3177 -19.1759
   -19.0151 -18.7803 -18.6415 -18.5447 -18.1489 -18.0902 -17.9227 -17.7241
   -12.3513 -12.1164 -12.0473 -11.9089 -11.6838 -11.6607 -11.5551 -10.9440
   -10.8927 -10.6261 -10.5252  -9.8624  -9.6958  -9.3380  -9.1134  -8.6498
    -8.6255  -8.5552  -8.3914  -8.3589  -8.1639  -8.1109  -8.0661  -8.0521
    -7.6912  -7.6258  -7.4969  -7.4763  -7.3435  -7.1727  -7.0701  -6.8490
    -6.6237  -6.3782  -6.1653  -6.1600  -5.9620  -5.9309  -5.7859  -5.7341
    -5.4535  -5.3883  -5.1935  -5.0355  -4.4296  -4.3437  -4.0799  -3.7578
    -1.4197   0.3680   0.8632   1.0211   1.0721   1.1309   1.2059   1.2685
     1.3259   1.4641   1.5337   1.7375   1.7964   1.8312   1.8978   2.0787
     2.1209   2.1427   2.1704   2.2133   2.2811   2.3155

          k = 0.1667-0.0962 0.0000 ( 59226 PWs)   bands (ev):

   -68.6756 -68.6677 -40.3464 -40.2636 -40.1050 -40.0969 -40.0412 -40.0327
   -21.3147 -20.5371 -20.3468 -20.3401 -19.9887 -19.9826 -19.8066 -18.7289
   -18.7245 -18.3787 -18.3640 -18.3586 -18.2732 -18.2574 -18.0775 -18.0723
   -12.5127 -12.5026 -12.4106 -11.5841 -11.5793 -11.4332 -11.4186 -10.9283
   -10.9262  -9.9309  -9.9296  -9.6780  -9.3803  -9.3721  -9.2319  -9.2303
    -9.0445  -9.0426  -8.9097  -8.3247  -8.3239  -7.9051  -7.9002  -7.8648
    -7.8460  -7.7728  -7.5965  -7.5764  -7.1141  -7.0867  -6.9618  -6.8901
    -6.8882  -6.8444  -6.5328  -6.5313  -6.2598  -5.3301  -5.3119  -5.1452
    -5.0674  -4.7994  -4.7801  -4.7472  -4.6106  -4.5912  -4.3409  -4.3263
    -1.4389   0.3939   0.9123   1.0318   1.0863   1.1546   1.2101   1.3465
     1.4403   1.5099   1.5884   1.6454   1.7817   1.8301   1.9004   1.9272
     2.0280   2.0772   2.1305   2.1503   2.2131   2.3335

          k =-0.5000-0.8660 0.0000 ( 59292 PWs)   bands (ev):

   -68.6756 -68.6677 -40.3464 -40.2636 -40.1050 -40.0969 -40.0412 -40.0327
   -21.0535 -21.0456 -20.4708 -20.4652 -19.4302 -19.4243 -19.4113 -19.4081
   -18.9956 -18.9872 -18.3282 -18.3266 -18.3200 -18.3036 -17.7933 -17.7896
   -12.0743 -12.0719 -12.0677 -12.0574 -11.8809 -11.8762 -11.3325 -11.3288
   -10.2368 -10.2354 -10.1377 -10.1335 -10.1317 -10.1284  -8.5639  -8.5515
    -8.5503  -8.5480  -8.5429  -8.5392  -7.8667  -7.8649  -7.8634  -7.8605
    -7.8232  -7.8217  -7.7674  -7.7479  -7.4948  -7.4864  -6.6126  -6.6112
    -6.3362  -6.3129  -6.3057  -6.2866  -6.1937  -6.1874  -5.6974  -5.6922
    -5.5500  -5.5418  -4.7131  -4.7044  -4.6896  -4.6878  -3.8744  -3.8629
    -1.3952   0.1292   0.8827   1.0220   1.1303   1.1780   1.2795   1.3988
     1.4637   1.5421   1.5848   1.7102   1.7431   1.8927   1.9244   1.9384
     1.9813   2.0643   2.1813   2.2335   2.2921   2.3537

          k =-0.1667 0.2887 0.0000 ( 59267 PWs)   bands (ev):

   -68.6756 -68.6677 -40.3464 -40.2636 -40.1050 -40.0969 -40.0412 -40.0327
   -21.2482 -20.6633 -20.6557 -20.1101 -20.0931 -19.5904 -19.5821 -19.1004
   -18.6999 -18.6906 -18.4626 -18.4470 -18.1950 -18.0869 -18.0777 -17.8500
   -12.4871 -12.2122 -12.2011 -11.8242 -11.8199 -11.6614 -11.1950 -11.1907
   -10.3943 -10.3700 -10.1207 -10.1161  -9.5918  -9.5903  -8.8331  -8.8222
    -8.8195  -8.7705  -8.7626  -8.5988  -8.1996  -8.0308  -8.0122  -7.8332
    -7.8283  -7.4405  -7.4383  -7.2730  -7.2441  -7.2116  -7.2080  -6.9672
    -6.9534  -6.5474  -6.5359  -6.1563  -6.1548  -5.8598  -5.4204  -5.2783
    -5.2672  -5.2022  -4.9084  -4.8861  -4.4944  -4.3466  -4.3337  -3.9699
    -1.4293   0.3797   0.8909   1.0695   1.1100   1.1965   1.2673   1.3273
     1.4177   1.4953   1.5325   1.5715   1.6300   1.7283   1.8806   2.0018
     2.0414   2.1186   2.1504   2.1908   2.2546   2.3260

          k = 0.3333 0.0000 0.0000 ( 59267 PWs)   bands (ev):

   -68.6756 -68.6677 -40.3464 -40.2636 -40.1050 -40.0969 -40.0412 -40.0327
   -21.2478 -20.6873 -20.6315 -20.1099 -20.0919 -19.6143 -19.5599 -19.1023
   -18.7144 -18.6713 -18.4642 -18.4471 -18.1910 -18.1074 -18.0632 -17.8492
   -12.4862 -12.2131 -12.2005 -11.8334 -11.8133 -11.6595 -11.2124 -11.1734
   -10.3934 -10.3698 -10.1329 -10.1048  -9.5978  -9.5830  -8.8349  -8.8258
    -8.8119  -8.7910  -8.7433  -8.5995  -8.2014  -8.0788  -7.9639  -7.8316
    -7.8276  -7.4460  -7.4328  -7.2756  -7.2372  -7.2203  -7.1989  -6.9680
    -6.9542  -6.5973  -6.4915  -6.1589  -6.1515  -5.8651  -5.4202  -5.2941
    -5.2422  -5.2026  -4.9165  -4.8804  -4.4872  -4.3729  -4.3174  -3.9691
    -1.4138   0.2104   0.9243   1.0445   1.1279   1.2123   1.2299   1.4346
     1.4489   1.4924   1.5521   1.6281   1.7950   1.8705   1.9082   1.9152
     2.0280   2.0762   2.1517   2.1819   2.2739   2.3606

          k =-0.1667-0.4811 0.0000 ( 59291 PWs)   bands (ev):

   -68.6756 -68.6677 -40.3464 -40.2636 -40.1050 -40.0969 -40.0412 -40.0327
   -21.1180 -20.9133 -20.7242 -20.1620 -19.8055 -19.4676 -19.3177 -19.1759
   -19.0151 -18.7803 -18.6415 -18.5447 -18.1489 -18.0902 -17.9227 -17.7241
   -12.3513 -12.1164 -12.0473 -11.9089 -11.6837 -11.6607 -11.5551 -10.9440
   -10.8927 -10.6261 -10.5251  -9.8623  -9.6958  -9.3381  -9.1135  -8.6498
    -8.6255  -8.5552  -8.3914  -8.3589  -8.1639  -8.1109  -8.0662  -8.0522
    -7.6912  -7.6258  -7.4968  -7.4763  -7.3435  -7.1726  -7.0700  -6.8490
    -6.6238  -6.3782  -6.1653  -6.1600  -5.9620  -5.9308  -5.7858  -5.7341
    -5.4536  -5.3883  -5.1935  -5.0355  -4.4296  -4.3437  -4.0799  -3.7578
    -1.4197   0.3680   0.8632   1.0211   1.0721   1.1309   1.2059   1.2685
     1.3259   1.4641   1.5337   1.7375   1.7964   1.8313   1.8977   2.0787
     2.1209   2.1427   2.1705   2.2132   2.2811   2.3155

          k = 0.5000-0.0962 0.0000 ( 59291 PWs)   bands (ev):

   -68.6756 -68.6677 -40.3464 -40.2636 -40.1050 -40.0969 -40.0412 -40.0327
   -21.1151 -20.9210 -20.7191 -20.1603 -19.8056 -19.4691 -19.3241 -19.1708
   -19.0161 -18.7805 -18.6321 -18.5508 -18.1380 -18.1055 -17.9196 -17.7239
   -12.3496 -12.1171 -12.0453 -11.9133 -11.6965 -11.6459 -11.5572 -10.9449
   -10.8899 -10.6240 -10.5279  -9.8604  -9.6963  -9.3389  -9.1129  -8.6416
    -8.6262  -8.5531  -8.3959  -8.3827  -8.1618  -8.0957  -8.0788  -8.0404
    -7.6872  -7.6265  -7.4958  -7.4777  -7.3386  -7.1739  -7.0709  -6.8490
    -6.6242  -6.3832  -6.1804  -6.1596  -5.9503  -5.9303  -5.7851  -5.7358
    -5.4547  -5.3880  -5.1747  -5.0473  -4.4100  -4.3686  -4.0766  -3.7578
    -1.3953   0.1309   0.8778   1.0196   1.1197   1.1329   1.2189   1.2831
     1.3658   1.6188   1.7109   1.7503   1.8392   1.9175   1.9498   1.9896
     2.0553   2.1420   2.2038   2.2385   2.2845   2.3469

          k =-0.3333-0.3849 0.0000 ( 59291 PWs)   bands (ev):

   -68.6756 -68.6677 -40.3464 -40.2636 -40.1050 -40.0969 -40.0412 -40.0327
   -21.1161 -20.9183 -20.7210 -20.1602 -19.8073 -19.4675 -19.3191 -19.1739
   -19.0192 -18.7786 -18.6334 -18.5502 -18.1400 -18.1030 -17.9197 -17.7241
   -12.3507 -12.1144 -12.0480 -11.9115 -11.6852 -11.6588 -11.5562 -10.9446
   -10.8902 -10.6234 -10.5283  -9.8607  -9.6964  -9.3389  -9.1138  -8.6442
    -8.6247  -8.5548  -8.3929  -8.3741  -8.1634  -8.1015  -8.0660  -8.0545
    -7.6877  -7.6246  -7.5026  -7.4714  -7.3379  -7.1739  -7.0715  -6.8545
    -6.6222  -6.3783  -6.1674  -6.1617  -5.9588  -5.9291  -5.7853  -5.7442
    -5.4545  -5.3836  -5.1756  -5.0473  -4.4129  -4.3656  -4.0762  -3.7580
    -1.4036   0.1975   0.8698   1.0160   1.0995   1.1694   1.2084   1.2793
     1.3539   1.5332   1.6867   1.7729   1.8289   1.8877   1.9539   2.0164
     2.0625   2.0883   2.1672   2.2201   2.2964   2.3223

          k = 0.5000 0.0962 0.0000 ( 59291 PWs)   bands (ev):

   -68.6756 -68.6677 -40.3464 -40.2636 -40.1050 -40.0969 -40.0412 -40.0327
   -21.1151 -20.9210 -20.7192 -20.1603 -19.8055 -19.4691 -19.3241 -19.1708
   -19.0161 -18.7805 -18.6322 -18.5508 -18.1380 -18.1055 -17.9196 -17.7239
   -12.3496 -12.1171 -12.0453 -11.9133 -11.6965 -11.6459 -11.5572 -10.9449
   -10.8899 -10.6240 -10.5279  -9.8604  -9.6963  -9.3389  -9.1128  -8.6416
    -8.6262  -8.5531  -8.3959  -8.3827  -8.1618  -8.0957  -8.0788  -8.0403
    -7.6872  -7.6264  -7.4958  -7.4778  -7.3386  -7.1739  -7.0708  -6.8490
    -6.6241  -6.3832  -6.1804  -6.1595  -5.9503  -5.9303  -5.7852  -5.7358
    -5.4547  -5.3880  -5.1747  -5.0473  -4.4100  -4.3685  -4.0766  -3.7578
    -1.3953   0.1309   0.8778   1.0196   1.1197   1.1329   1.2188   1.2831
     1.3658   1.6188   1.7109   1.7503   1.8392   1.9175   1.9499   1.9896
     2.0553   2.1420   2.2038   2.2386   2.2845   2.3468

          k =-0.3333 0.3849 0.0000 ( 59291 PWs)   bands (ev):

   -68.6756 -68.6677 -40.3464 -40.2636 -40.1050 -40.0969 -40.0412 -40.0327
   -21.1161 -20.9183 -20.7210 -20.1602 -19.8073 -19.4675 -19.3191 -19.1739
   -19.0192 -18.7786 -18.6334 -18.5502 -18.1400 -18.1030 -17.9197 -17.7241
   -12.3507 -12.1144 -12.0481 -11.9115 -11.6852 -11.6588 -11.5562 -10.9446
   -10.8902 -10.6234 -10.5283  -9.8607  -9.6963  -9.3389  -9.1138  -8.6442
    -8.6248  -8.5547  -8.3930  -8.3741  -8.1635  -8.1015  -8.0660  -8.0545
    -7.6876  -7.6246  -7.5026  -7.4714  -7.3379  -7.1739  -7.0715  -6.8545
    -6.6223  -6.3782  -6.1674  -6.1617  -5.9588  -5.9292  -5.7852  -5.7442
    -5.4544  -5.3836  -5.1756  -5.0473  -4.4129  -4.3656  -4.0762  -3.7580
    -1.4036   0.1975   0.8698   1.0160   1.0995   1.1695   1.2084   1.2793
     1.3539   1.5332   1.6868   1.7729   1.8289   1.8876   1.9539   2.0164
     2.0626   2.0883   2.1672   2.2200   2.2963   2.3223

          k =-0.1667-0.0962 0.0000 ( 59226 PWs)   bands (ev):

   -68.6756 -68.6677 -40.3464 -40.2636 -40.1050 -40.0969 -40.0412 -40.0327
   -21.3147 -20.5371 -20.3468 -20.3401 -19.9887 -19.9826 -19.8066 -18.7289
   -18.7245 -18.3787 -18.3640 -18.3586 -18.2732 -18.2573 -18.0775 -18.0723
   -12.5127 -12.5027 -12.4106 -11.5841 -11.5793 -11.4332 -11.4186 -10.9283
   -10.9262  -9.9310  -9.9296  -9.6780  -9.3803  -9.3721  -9.2319  -9.2304
    -9.0445  -9.0426  -8.9097  -8.3248  -8.3240  -7.9051  -7.9002  -7.8648
    -7.8459  -7.7729  -7.5965  -7.5764  -7.1141  -7.0867  -6.9619  -6.8901
    -6.8881  -6.8444  -6.5328  -6.5312  -6.2598  -5.3301  -5.3119  -5.1451
    -5.0675  -4.7994  -4.7801  -4.7472  -4.6105  -4.5912  -4.3409  -4.3263
    -1.4389   0.3939   0.9123   1.0317   1.0863   1.1546   1.2101   1.3466
     1.4403   1.5100   1.5884   1.6454   1.7818   1.8301   1.9004   1.9271
     2.0280   2.0772   2.1307   2.1502   2.2131   2.3336

          k =-0.0000-0.1925 0.0000 ( 59226 PWs)   bands (ev):

   -68.6756 -68.6677 -40.3464 -40.2636 -40.1050 -40.0969 -40.0412 -40.0327
   -21.3148 -20.5320 -20.3590 -20.3367 -19.9905 -19.9733 -19.8104 -18.7344
   -18.7151 -18.4015 -18.3662 -18.3519 -18.2562 -18.2549 -18.0861 -18.0688
   -12.5138 -12.5023 -12.4098 -11.5889 -11.5753 -11.4318 -11.4177 -10.9308
   -10.9255  -9.9342  -9.9266  -9.6782  -9.3805  -9.3702  -9.2333  -9.2298
    -9.0440  -9.0436  -8.9101  -8.3270  -8.3209  -7.9056  -7.8997  -7.8530
    -7.8413  -7.7746  -7.6203  -7.5788  -7.1043  -7.0754  -6.9604  -6.8941
    -6.8858  -6.8542  -6.5361  -6.5271  -6.2604  -5.3329  -5.3012  -5.1454
    -5.0671  -4.8391  -4.7760  -4.7395  -4.5915  -4.5825  -4.3516  -4.3233
    -1.4462   0.5219   0.8875   1.0150   1.0816   1.1519   1.2100   1.3299
     1.3821   1.4654   1.5233   1.6009   1.7488   1.8276   1.8848   1.9889
     2.0435   2.0660   2.1298   2.1602   2.2131   2.2886

          k = 0.5000-0.8660 0.0000 ( 59292 PWs)   bands (ev):

   -68.6756 -68.6677 -40.3464 -40.2636 -40.1050 -40.0969 -40.0412 -40.0327
   -21.0535 -21.0455 -20.4707 -20.4652 -19.4302 -19.4243 -19.4113 -19.4081
   -18.9956 -18.9871 -18.3283 -18.3265 -18.3201 -18.3036 -17.7933 -17.7896
   -12.0744 -12.0719 -12.0678 -12.0573 -11.8809 -11.8762 -11.3325 -11.3287
   -10.2368 -10.2355 -10.1377 -10.1335 -10.1317 -10.1284  -8.5640  -8.5516
    -8.5503  -8.5479  -8.5428  -8.5391  -7.8667  -7.8649  -7.8634  -7.8605
    -7.8232  -7.8217  -7.7674  -7.7479  -7.4949  -7.4864  -6.6125  -6.6111
    -6.3362  -6.3129  -6.3057  -6.2866  -6.1937  -6.1872  -5.6974  -5.6922
    -5.5501  -5.5418  -4.7132  -4.7044  -4.6896  -4.6878  -3.8744  -3.8629
    -1.3952   0.1291   0.8827   1.0221   1.1303   1.1780   1.2795   1.3987
     1.4637   1.5421   1.5847   1.7102   1.7431   1.8927   1.9244   1.9384
     1.9813   2.0643   2.1813   2.2332   2.2921   2.3496

          k =-1.0000 0.0000 0.0000 ( 59292 PWs)   bands (ev):

   -68.6756 -68.6677 -40.3464 -40.2636 -40.1050 -40.0969 -40.0412 -40.0327
   -21.0761 -21.0201 -20.4808 -20.4598 -19.4421 -19.4104 -19.4094 -19.4058
   -19.0143 -18.9710 -18.3736 -18.3292 -18.2943 -18.2815 -17.8012 -17.7835
   -12.1120 -12.0761 -12.0464 -12.0334 -11.8871 -11.8704 -11.3525 -11.3102
   -10.2515 -10.2363 -10.1357 -10.1341 -10.1256 -10.1224  -8.6069  -8.5796
    -8.5583  -8.5289  -8.5194  -8.4899  -7.8822  -7.8756  -7.8620  -7.8539
    -7.8149  -7.8142  -7.7823  -7.7457  -7.5167  -7.4670  -6.6170  -6.6040
    -6.3498  -6.3000  -6.2945  -6.2812  -6.2106  -6.1730  -5.7237  -5.6716
    -5.5684  -5.5237  -4.7941  -4.6999  -4.6653  -4.6387  -3.8834  -3.8555
    -1.4273   0.4878   0.8666   1.0241   1.0650   1.1837   1.2271   1.2709
     1.3449   1.3463   1.6151   1.6361   1.6827   1.7975   1.8095   1.8881
     2.1243   2.1434   2.1602   2.2011   2.3180   2.3227

     the Fermi energy is    -1.1662 ev

!    total energy              =   -1133.82841319 Ry

     total all-electron energy =     -6753.504116 Ry
     estimated scf accuracy    <       0.00000006 Ry
     smearing contrib. (-TS)   =      -0.00000000 Ry
     internal energy E=F+TS    =   -1133.82841319 Ry

     The total energy is F=E-TS. E is the sum of the following terms:
     one-electron contribution =   -3951.12882044 Ry
     hartree contribution      =    2003.73616212 Ry
     xc contribution           =    -186.01717305 Ry
     ewald contribution        =    1358.95883200 Ry
     DFT-D3 Dispersion         =      -0.13528505 Ry
     one-center paw contrib.   =    -359.24212878 Ry

     total magnetization       =    10.00 Bohr mag/cell
     absolute magnetization    =    10.01 Bohr mag/cell

     convergence has been achieved in  14 iterations

     Writing output data file ./mytmp/Crdimer0.1435-0.4.save/
 
     init_run     :     18.84s CPU     20.17s WALL (       1 calls)
     electrons    :    529.94s CPU    577.75s WALL (       1 calls)

     Called by init_run:
     wfcinit      :     13.79s CPU     14.59s WALL (       1 calls)
     potinit      :      1.50s CPU      1.60s WALL (       1 calls)
     hinit0       :      1.56s CPU      1.62s WALL (       1 calls)

     Called by electrons:
     c_bands      :    416.07s CPU    443.37s WALL (      14 calls)
     sum_band     :     81.26s CPU     92.88s WALL (      14 calls)
     v_of_rho     :      7.52s CPU      8.36s WALL (      15 calls)
     newd         :     17.80s CPU     25.28s WALL (      15 calls)
     PAW_pot      :      6.87s CPU      7.50s WALL (      15 calls)
     mix_rho      :      0.97s CPU      1.09s WALL (      14 calls)

     Called by c_bands:
     init_us_2    :      5.01s CPU      5.05s WALL (     870 calls)
     cegterg      :    403.73s CPU    430.92s WALL (     420 calls)

     Called by *egterg:
     cdiaghg      :     25.79s CPU     40.79s WALL (    2826 calls)
     h_psi        :    244.54s CPU    254.27s WALL (    2856 calls)
     s_psi        :     27.44s CPU     27.54s WALL (    2856 calls)
     g_psi        :      0.64s CPU      0.66s WALL (    2406 calls)

     Called by h_psi:
     h_psi:calbec :     29.18s CPU     29.88s WALL (    2856 calls)
     vloc_psi     :    185.25s CPU    194.09s WALL (    2856 calls)
     add_vuspsi   :     27.82s CPU     27.97s WALL (    2856 calls)

     General routines
     calbec       :     38.86s CPU     39.79s WALL (    3276 calls)
     fft          :      9.51s CPU     14.21s WALL (     369 calls)
     ffts         :      0.12s CPU      0.14s WALL (      58 calls)
     fftw         :    191.07s CPU    200.04s WALL (  249070 calls)
     interpolate  :      0.40s CPU      0.47s WALL (      30 calls)
 
     Parallel routines
     fft_scatt_xy :     31.03s CPU     32.20s WALL (  249497 calls)
     fft_scatt_yz :     79.90s CPU     88.90s WALL (  249497 calls)
 
     PWSCF        :   9m10.83s CPU  10m 2.76s WALL

 
   This run was terminated on:  16:34:34   2Apr2021            

=------------------------------------------------------------------------------=
   JOB DONE.
=------------------------------------------------------------------------------=
