
     Program PWSCF v.6.7MaX starts on  2Apr2021 at 11:59:57 

     This program is part of the open-source Quantum ESPRESSO suite
     for quantum simulation of materials; please cite
         "P. Giannozzi et al., J. Phys.:Condens. Matter 21 395502 (2009);
         "P. Giannozzi et al., J. Phys.:Condens. Matter 29 465901 (2017);
          URL http://www.quantum-espresso.org", 
     in publications or presentations arising from this work. More details at
     http://www.quantum-espresso.org/quote

     Parallel version (MPI), running on    48 processors

     MPI processes distributed on     1 nodes
     R & G space division:  proc/nbgrp/npool/nimage =      48
     Reading input from Crdimer0.141-0.1.scf.in

     Current dimensions of program PWSCF are:
     Max number of different atomic species (ntypx) = 10
     Max number of k-points (npk) =  40000
     Max angular momentum in pseudopotentials (lmaxx) =  3
     file N.pbe-n-kjpaw_psl.1.0.0.UPF: wavefunction(s)  2S renormalized
     file Cr.pbe-spn-kjpaw_psl.1.0.0.UPF: wavefunction(s)  3S 3P 3D renormalized
     file Cr.pbe-spn-kjpaw_psl.1.0.0.UPF: wavefunction(s)  3S 3P 3D renormalized

     --------------------------------------------
     Parameters for DFT-D3 Dispersion Correction:
     --------------------------------------------
       Reference C6 values for interpolation: 

         atom   Coordination number   C6
         B          0.000           214.36
         B          0.971           150.74
         B          1.944           106.23
         B          2.913            62.89
         B          4.586            56.06
         N          0.000            50.54
         N          0.994            44.25
         N          2.014            39.35
         N          2.990            31.16
         Cr1        0.000          1381.48
         Cr1        1.827           571.38
         Cr1       10.619           306.69
         Cr2        0.000          1381.48
         Cr2        1.827           571.38
         Cr2       10.619           306.69

       Values used:

         atom   Coordination number  R0_AB[au]  C6      C8
         B          3.337            3.039     62.89   2505.96
         B          3.335            3.039     62.89   2506.00
         B          3.356            3.039     62.88   2505.46
         B          3.336            3.039     62.89   2505.99
         B          3.354            3.039     62.88   2505.52
         B          3.336            3.039     62.89   2505.98
         N          3.134            2.478     31.22    688.70
         N          3.134            2.478     31.22    688.70
         N          3.167            2.478     31.21    688.42
         N          3.136            2.478     31.22    688.68
         N          3.138            2.478     31.22    688.66
         N          3.134            2.478     31.22    688.70
         N          3.137            2.478     31.22    688.67
         N          3.134            2.478     31.22    688.70
         N          3.137            2.478     31.22    688.67
         B          3.336            3.039     62.89   2506.00
         B          3.335            3.039     62.89   2506.00
         B          3.336            3.039     62.89   2505.98
         B          3.354            3.039     62.88   2505.52
         B          3.337            3.039     62.89   2505.96
         B          3.336            3.039     62.89   2506.00
         N          3.137            2.478     31.22    688.67
         B          3.335            3.039     62.89   2506.01
         B          3.336            3.039     62.89   2505.99
         B          3.351            3.039     62.88   2505.60
         N          3.134            2.478     31.22    688.70
         N          3.134            2.478     31.22    688.70
         N          3.136            2.478     31.22    688.68
         N          3.136            2.478     31.22    688.68
         N          3.167            2.478     31.21    688.42
         N          3.136            2.478     31.22    688.68
         B          3.351            3.039     62.88   2505.60
         Cr1        0.749            3.252   1297.24 119720.47
         Cr2        0.749            3.252   1297.24 119720.47

         Molecular C6 ( Ry / a.u.^6 ) =     78192.78


     Subspace diagonalization in iterative solution of the eigenvalue problem:
     one sub-group per band group will be used
     scalapack distributed-memory algorithm (size of sub-group:  6*  6 procs)

 
     Parallelization info
     --------------------
     sticks:   dense  smooth     PW     G-vecs:    dense   smooth      PW
     Min         235      98     26                36277     9874    1408
     Max         236      99     27                36282     9883    1425
     Sum       11311    4741   1285              1741401   474235   68095
 


     bravais-lattice index     =            4
     lattice parameter (alat)  =      18.9275  a.u.
     unit-cell volume          =   10553.3021 (a.u.)^3
     number of atoms/cell      =           34
     number of atomic types    =            4
     number of electrons       =       156.00
     number of Kohn-Sham states=           94
     kinetic-energy cutoff     =      48.0000  Ry
     charge density cutoff     =     457.0000  Ry
     scf convergence threshold =      1.0E-07
     mixing beta               =       0.5000
     number of iterations used =            8  plain     mixing
     Exchange-correlation= SLA  PW   PBX  PBC
                           (   1   4   3   4   0   0   0)

     celldm(1)=  18.927497  celldm(2)=   0.000000  celldm(3)=   1.797125
     celldm(4)=   0.000000  celldm(5)=   0.000000  celldm(6)=   0.000000

     crystal axes: (cart. coord. in units of alat)
               a(1) = (   1.000000   0.000000   0.000000 )  
               a(2) = (  -0.500000   0.866025   0.000000 )  
               a(3) = (   0.000000   0.000000   1.797125 )  

     reciprocal axes: (cart. coord. in units 2 pi/alat)
               b(1) = (  1.000000  0.577350  0.000000 )  
               b(2) = (  0.000000  1.154701  0.000000 )  
               b(3) = (  0.000000  0.000000  0.556444 )  


     PseudoPot. # 1 for B  read from file:
     /home/sf05/q-e-qe-6.7MaX-Release/pseudo/B.pbe-n-kjpaw_psl.1.0.0.UPF
     MD5 check sum: d9c678ba5d3b2fd7b74e61139c9288d8
     Pseudo is Projector augmented-wave + core cor, Zval =  3.0
     Generated using "atomic" code by A. Dal Corso  v.5.1.2
     Shape of augmentation charge: PSQ
     Using radial grid of 1059 points,  4 beta functions with: 
                l(1) =   0
                l(2) =   0
                l(3) =   1
                l(4) =   1
     Q(r) pseudized with 0 coefficients 


     PseudoPot. # 2 for N  read from file:
     /home/sf05/q-e-qe-6.7MaX-Release/pseudo/N.pbe-n-kjpaw_psl.1.0.0.UPF
     MD5 check sum: e0e4e94a9c4025c5b51bd7d8793849bd
     Pseudo is Projector augmented-wave + core cor, Zval =  5.0
     Generated using "atomic" code by A. Dal Corso  v.5.1.2
     Shape of augmentation charge: PSQ
     Using radial grid of 1085 points,  4 beta functions with: 
                l(1) =   0
                l(2) =   0
                l(3) =   1
                l(4) =   1
     Q(r) pseudized with 0 coefficients 


     PseudoPot. # 3 for Cr read from file:
     /home/sf05/q-e-qe-6.7MaX-Release/pseudo/Cr.pbe-spn-kjpaw_psl.1.0.0.UPF
     MD5 check sum: 198f1a2427a48552563eee314eba32ba
     Pseudo is Projector augmented-wave + core cor, Zval = 14.0
     Generated using &quot;atomic&quot; code by A. Dal Corso  v.6.3
     Shape of augmentation charge: PSQ
     Using radial grid of 1183 points,  6 beta functions with: 
                l(1) =   0
                l(2) =   0
                l(3) =   1
                l(4) =   1
                l(5) =   2
                l(6) =   2
     Q(r) pseudized with 0 coefficients 


     PseudoPot. # 4 for Cr read from file:
     /home/sf05/q-e-qe-6.7MaX-Release/pseudo/Cr.pbe-spn-kjpaw_psl.1.0.0.UPF
     MD5 check sum: 198f1a2427a48552563eee314eba32ba
     Pseudo is Projector augmented-wave + core cor, Zval = 14.0
     Generated using &quot;atomic&quot; code by A. Dal Corso  v.6.3
     Shape of augmentation charge: PSQ
     Using radial grid of 1183 points,  6 beta functions with: 
                l(1) =   0
                l(2) =   0
                l(3) =   1
                l(4) =   1
                l(5) =   2
                l(6) =   2
     Q(r) pseudized with 0 coefficients 


     atomic species   valence    mass     pseudopotential
        B              3.00    10.81100     B ( 1.00)
        N              5.00    14.00674     N ( 1.00)
        Cr1           14.00    51.99610     Cr( 1.00)
        Cr2           14.00    51.99610     Cr( 1.00)

     Starting magnetic structure 
     atomic species   magnetization
        B            0.000
        N            0.000
        Cr1          1.000
        Cr2          1.000

     No symmetry found



   Cartesian axes

     site n.     atom                  positions (alat units)
         1           B   tau(   1) = (  -0.1250000   0.2165064   0.8985623  )
         2           B   tau(   2) = (   0.3750000   0.6495191   0.8985623  )
         3           B   tau(   3) = (   0.2500000   0.0000000   0.8985623  )
         4           B   tau(   4) = (   0.7500000   0.0000000   0.8985623  )
         5           B   tau(   5) = (   0.1250000   0.2165064   0.8985623  )
         6           B   tau(   6) = (  -0.3750000   0.6495191   0.8985623  )
         7           N   tau(   7) = (   0.7500005   0.2886748   0.8985623  )
         8           N   tau(   8) = (   0.3750005   0.5051812   0.8985623  )
         9           N   tau(   9) = (   0.3750005   0.0721685   0.8985623  )
        10           N   tau(  10) = (   0.6250005   0.0721685   0.8985623  )
        11           N   tau(  11) = (   0.2500005   0.2886748   0.8985623  )
        12           N   tau(  12) = (   0.6250005   0.5051812   0.8985623  )
        13           N   tau(  13) = (   0.0000005   0.2886748   0.8985623  )
        14           N   tau(  14) = (   0.2500005   0.7216875   0.8985623  )
        15           N   tau(  15) = (  -0.2499995   0.7216875   0.8985623  )
        16           B   tau(  16) = (   0.0000000   0.4330127   0.8985623  )
        17           B   tau(  17) = (   0.1250000   0.6495191   0.8985623  )
        18           B   tau(  18) = (  -0.1250000   0.6495191   0.8985623  )
        19           B   tau(  19) = (   0.3750000   0.2165064   0.8985623  )
        20           B   tau(  20) = (   0.6250000   0.2165064   0.8985623  )
        21           B   tau(  21) = (   0.5000000   0.4330127   0.8985623  )
        22           N   tau(  22) = (   0.5000005   0.2886748   0.8985623  )
        23           B   tau(  23) = (  -0.2500000   0.4330127   0.8985623  )
        24           B   tau(  24) = (   0.2500000   0.4330127   0.8985623  )
        25           B   tau(  25) = (   0.5000000   0.0000000   0.8985623  )
        26           N   tau(  26) = (  -0.1249995   0.5051812   0.8985623  )
        27           N   tau(  27) = (   0.1250005   0.5051812   0.8985623  )
        28           N   tau(  28) = (   0.0000005   0.7216875   0.8985623  )
        29           N   tau(  29) = (   0.5000005   0.7216875   0.8985623  )
        30           N   tau(  30) = (   0.1250005   0.0721685   0.8985623  )
        31           N   tau(  31) = (   0.8750005   0.0721685   0.8985623  )
        32           B   tau(  32) = (   0.0000000   0.0000000   0.8985623  )
        33           Cr1 tau(  33) = (   0.3910000   0.0866025   1.2040735  )
        34           Cr2 tau(  34) = (   0.1090000   0.0866025   1.2040735  )

     number of k points=    15  Gaussian smearing, width (Ry)=  0.0000
                       cart. coord. in units 2pi/alat
        k(    1) = (   0.1666667   0.2886751   0.0000000), wk =   0.0740741
        k(    2) = (   0.1666667  -0.4811252   0.0000000), wk =   0.0740741
        k(    3) = (   0.1666667  -0.0962250   0.0000000), wk =   0.0740741
        k(    4) = (  -0.5000000  -0.8660254   0.0000000), wk =   0.0370370
        k(    5) = (  -0.1666667   0.2886751   0.0000000), wk =   0.0740741
        k(    6) = (   0.3333333   0.0000000   0.0000000), wk =   0.0740741
        k(    7) = (  -0.1666667  -0.4811252   0.0000000), wk =   0.0740741
        k(    8) = (   0.5000000  -0.0962250   0.0000000), wk =   0.0740741
        k(    9) = (  -0.3333333  -0.3849002   0.0000000), wk =   0.0740741
        k(   10) = (   0.5000000   0.0962250   0.0000000), wk =   0.0740741
        k(   11) = (  -0.3333333   0.3849002   0.0000000), wk =   0.0740741
        k(   12) = (  -0.1666667  -0.0962250   0.0000000), wk =   0.0740741
        k(   13) = (  -0.0000000  -0.1924501   0.0000000), wk =   0.0740741
        k(   14) = (   0.5000000  -0.8660254   0.0000000), wk =   0.0370370
        k(   15) = (  -1.0000000   0.0000000   0.0000000), wk =   0.0370370

     Dense  grid:  1741401 G-vectors     FFT dimensions: ( 135, 135, 240)

     Smooth grid:   474235 G-vectors     FFT dimensions: (  90,  90, 160)

     Estimated max dynamical RAM per process >     218.62 MB

     Estimated total dynamical RAM >      10.25 GB
     Generating pointlists ...
     new r_m :   0.0595 (alat units)  1.1269 (a.u.) for type    1
     new r_m :   0.0595 (alat units)  1.1269 (a.u.) for type    2
     new r_m :   0.1163 (alat units)  2.2017 (a.u.) for type    3
     new r_m :   0.1163 (alat units)  2.2017 (a.u.) for type    4

     Initial potential from superposition of free atoms

     starting charge  155.99382, renormalised to  156.00000

     negative rho (up, down):  6.708E-03 4.655E-04
     Starting wfcs are  148 randomized atomic wfcs
     Checking if some PAW data can be deallocated... 

     total cpu time spent up to now is       20.1 secs

     Self-consistent Calculation

     iteration #  1     ecut=    48.00 Ry     beta= 0.50
     Davidson diagonalization with overlap
     ethr =  1.00E-02,  avg # of iterations =  2.8

     negative rho (up, down):  4.891E-03 2.904E-03

     total cpu time spent up to now is       60.1 secs

     total energy              =   -1130.73753813 Ry
     estimated scf accuracy    <      11.35635905 Ry

     total magnetization       =    12.00 Bohr mag/cell
     absolute magnetization    =    12.16 Bohr mag/cell

     iteration #  2     ecut=    48.00 Ry     beta= 0.50
     Davidson diagonalization with overlap
     ethr =  7.28E-03,  avg # of iterations =  2.7

     negative rho (up, down):  1.085E-02 1.016E-02

     total cpu time spent up to now is       97.2 secs

     total energy              =   -1132.49321205 Ry
     estimated scf accuracy    <       4.80802760 Ry

     total magnetization       =     9.11 Bohr mag/cell
     absolute magnetization    =     9.54 Bohr mag/cell

     iteration #  3     ecut=    48.00 Ry     beta= 0.50
     Davidson diagonalization with overlap
     ethr =  3.08E-03,  avg # of iterations =  7.5

     negative rho (up, down):  7.237E-03 7.220E-03

     total cpu time spent up to now is      138.4 secs

     total energy              =   -1133.49906155 Ry
     estimated scf accuracy    <       1.38658331 Ry

     total magnetization       =    10.00 Bohr mag/cell
     absolute magnetization    =    10.20 Bohr mag/cell

     iteration #  4     ecut=    48.00 Ry     beta= 0.50
     Davidson diagonalization with overlap
     ethr =  8.89E-04,  avg # of iterations =  5.8

     negative rho (up, down):  6.404E-03 5.741E-03

     total cpu time spent up to now is      173.2 secs

     total energy              =   -1133.80531673 Ry
     estimated scf accuracy    <       0.26778415 Ry

     total magnetization       =    10.00 Bohr mag/cell
     absolute magnetization    =    10.06 Bohr mag/cell

     iteration #  5     ecut=    48.00 Ry     beta= 0.50
     Davidson diagonalization with overlap
     ethr =  1.72E-04,  avg # of iterations = 10.0

     negative rho (up, down):  4.035E-03 3.959E-03

     total cpu time spent up to now is      213.4 secs

     total energy              =   -1133.78205461 Ry
     estimated scf accuracy    <       0.29350872 Ry

     total magnetization       =    10.00 Bohr mag/cell
     absolute magnetization    =    10.02 Bohr mag/cell

     iteration #  6     ecut=    48.00 Ry     beta= 0.50
     Davidson diagonalization with overlap
     ethr =  1.72E-04,  avg # of iterations =  5.8

     negative rho (up, down):  3.529E-03 3.947E-03

     total cpu time spent up to now is      249.5 secs

     total energy              =   -1133.81629267 Ry
     estimated scf accuracy    <       0.09124707 Ry

     total magnetization       =    10.00 Bohr mag/cell
     absolute magnetization    =    10.02 Bohr mag/cell

     iteration #  7     ecut=    48.00 Ry     beta= 0.50
     Davidson diagonalization with overlap
     ethr =  5.85E-05,  avg # of iterations =  5.7

     negative rho (up, down):  3.258E-03 3.777E-03

     total cpu time spent up to now is      285.4 secs

     total energy              =   -1133.82589459 Ry
     estimated scf accuracy    <       0.01700899 Ry

     total magnetization       =    10.00 Bohr mag/cell
     absolute magnetization    =    10.02 Bohr mag/cell

     iteration #  8     ecut=    48.00 Ry     beta= 0.50
     Davidson diagonalization with overlap
     ethr =  1.09E-05,  avg # of iterations =  6.6

     negative rho (up, down):  3.145E-03 3.774E-03

     total cpu time spent up to now is      319.9 secs

     total energy              =   -1133.82772271 Ry
     estimated scf accuracy    <       0.00098282 Ry

     total magnetization       =    10.00 Bohr mag/cell
     absolute magnetization    =    10.02 Bohr mag/cell

     iteration #  9     ecut=    48.00 Ry     beta= 0.50
     Davidson diagonalization with overlap
     c_bands:  1 eigenvalues not converged
     c_bands:  2 eigenvalues not converged
     ethr =  6.30E-07,  avg # of iterations = 10.3

     negative rho (up, down):  3.119E-03 3.786E-03

     total cpu time spent up to now is      366.2 secs

     total energy              =   -1133.82798453 Ry
     estimated scf accuracy    <       0.00017683 Ry

     total magnetization       =    10.00 Bohr mag/cell
     absolute magnetization    =    10.01 Bohr mag/cell

     iteration # 10     ecut=    48.00 Ry     beta= 0.50
     Davidson diagonalization with overlap
     ethr =  1.13E-07,  avg # of iterations =  2.6

     negative rho (up, down):  3.108E-03 3.790E-03

     total cpu time spent up to now is      398.4 secs

     total energy              =   -1133.82802530 Ry
     estimated scf accuracy    <       0.00005579 Ry

     total magnetization       =    10.00 Bohr mag/cell
     absolute magnetization    =    10.01 Bohr mag/cell

     iteration # 11     ecut=    48.00 Ry     beta= 0.50
     Davidson diagonalization with overlap
     ethr =  3.58E-08,  avg # of iterations =  2.3

     negative rho (up, down):  3.105E-03 3.797E-03

     total cpu time spent up to now is      428.7 secs

     total energy              =   -1133.82803963 Ry
     estimated scf accuracy    <       0.00000854 Ry

     total magnetization       =    10.00 Bohr mag/cell
     absolute magnetization    =    10.01 Bohr mag/cell

     iteration # 12     ecut=    48.00 Ry     beta= 0.50
     Davidson diagonalization with overlap
     ethr =  5.47E-09,  avg # of iterations =  4.9

     negative rho (up, down):  3.102E-03 3.800E-03

     total cpu time spent up to now is      463.2 secs

     total energy              =   -1133.82804409 Ry
     estimated scf accuracy    <       0.00000123 Ry

     total magnetization       =    10.00 Bohr mag/cell
     absolute magnetization    =    10.01 Bohr mag/cell

     iteration # 13     ecut=    48.00 Ry     beta= 0.50
     Davidson diagonalization with overlap
     ethr =  7.89E-10,  avg # of iterations =  3.6

     negative rho (up, down):  3.100E-03 3.801E-03

     total cpu time spent up to now is      495.8 secs

     total energy              =   -1133.82804500 Ry
     estimated scf accuracy    <       0.00000025 Ry

     total magnetization       =    10.00 Bohr mag/cell
     absolute magnetization    =    10.01 Bohr mag/cell

     iteration # 14     ecut=    48.00 Ry     beta= 0.50
     Davidson diagonalization with overlap
     ethr =  1.59E-10,  avg # of iterations =  4.0

     negative rho (up, down):  3.100E-03 3.803E-03

     total cpu time spent up to now is      529.5 secs

     total energy              =   -1133.82804528 Ry
     estimated scf accuracy    <       0.00000011 Ry

     total magnetization       =    10.00 Bohr mag/cell
     absolute magnetization    =    10.01 Bohr mag/cell

     iteration # 15     ecut=    48.00 Ry     beta= 0.50
     Davidson diagonalization with overlap
     ethr =  6.98E-11,  avg # of iterations =  4.2

     negative rho (up, down):  3.099E-03 3.803E-03
 
     Magnetic moment per site:
     atom:    1    charge:    0.8807    magn:    0.0001    constr:    0.0000
     atom:    2    charge:    0.8804    magn:    0.0001    constr:    0.0000
     atom:    3    charge:    0.8792    magn:    0.0008    constr:    0.0000
     atom:    4    charge:    0.8807    magn:    0.0002    constr:    0.0000
     atom:    5    charge:    0.8801    magn:    0.0004    constr:    0.0000
     atom:    6    charge:    0.8801    magn:    0.0002    constr:    0.0000
     atom:    7    charge:    2.8611    magn:    0.0001    constr:    0.0000
     atom:    8    charge:    2.8609    magn:    0.0003    constr:    0.0000
     atom:    9    charge:    2.8611    magn:    0.0074    constr:    0.0000
     atom:   10    charge:    2.8609    magn:    0.0014    constr:    0.0000
     atom:   11    charge:    2.8605    magn:    0.0031    constr:    0.0000
     atom:   12    charge:    2.8609    magn:    0.0001    constr:    0.0000
     atom:   13    charge:    2.8598    magn:    0.0022    constr:    0.0000
     atom:   14    charge:    2.8599    magn:    0.0004    constr:    0.0000
     atom:   15    charge:    2.8596    magn:    0.0019    constr:    0.0000
     atom:   16    charge:    0.8800    magn:    0.0002    constr:    0.0000
     atom:   17    charge:    0.8801    magn:    0.0001    constr:    0.0000
     atom:   18    charge:    0.8798    magn:    0.0002    constr:    0.0000
     atom:   19    charge:    0.8795    magn:    0.0004    constr:    0.0000
     atom:   20    charge:    0.8801    magn:    0.0001    constr:    0.0000
     atom:   21    charge:    0.8797    magn:    0.0002    constr:    0.0000
     atom:   22    charge:    2.8611    magn:    0.0022    constr:    0.0000
     atom:   23    charge:    0.8799    magn:    0.0001    constr:    0.0000
     atom:   24    charge:    0.8797    magn:    0.0002    constr:    0.0000
     atom:   25    charge:    0.8804    magn:    0.0002    constr:    0.0000
     atom:   26    charge:    2.8598    magn:    0.0001    constr:    0.0000
     atom:   27    charge:    2.8598    magn:    0.0003    constr:    0.0000
     atom:   28    charge:    2.8596    magn:    0.0018    constr:    0.0000
     atom:   29    charge:    2.8594    magn:    0.0018    constr:    0.0000
     atom:   30    charge:    2.8598    magn:    0.0074    constr:    0.0000
     atom:   31    charge:    2.8596    magn:    0.0014    constr:    0.0000
     atom:   32    charge:    0.8807    magn:    0.0002    constr:    0.0000
     atom:   33    charge:   12.5073    magn:    4.2275    constr:    0.0000
     atom:   34    charge:   12.5072    magn:    4.2274    constr:    0.0000

     total cpu time spent up to now is      563.1 secs

     End of self-consistent calculation

 ------ SPIN UP ------------


          k = 0.1667 0.2887 0.0000 ( 59267 PWs)   bands (ev):

   -72.8834 -72.8748 -44.4353 -44.3516 -44.2917 -44.2835 -44.2506 -44.2423
   -21.2534 -20.6670 -20.6620 -20.1094 -20.1043 -19.5924 -19.5899 -19.1056
   -18.7057 -18.6973 -18.4615 -18.4585 -18.2016 -18.0910 -18.0828 -17.8555
   -12.4904 -12.2109 -12.2089 -11.8262 -11.8236 -11.6644 -11.1977 -11.1950
   -10.3976 -10.3739 -10.1233 -10.1207  -9.5953  -9.5940  -8.8438  -8.8318
    -8.8299  -8.7715  -8.7683  -8.6021  -8.2028  -8.0626  -8.0183  -7.8357
    -7.8331  -7.4449  -7.4427  -7.2876  -7.2672  -7.2141  -7.2126  -6.9646
    -6.9629  -6.5755  -6.5405  -6.1601  -6.1587  -5.8784  -5.4245  -5.3112
    -5.2766  -5.2061  -4.9170  -4.9080  -4.5146  -4.3621  -4.3427  -3.9855
    -2.8909  -2.0513  -2.0361  -1.8422  -1.6559  -1.5657  -1.4917  -1.4810
    -1.3721  -1.3517  -1.2801  -0.7293   0.6373   0.8382   1.0914   1.1952
     1.2794   1.4576   1.5174   1.5751   1.6202   1.7880

          k = 0.1667-0.4811 0.0000 ( 59291 PWs)   bands (ev):

   -72.8834 -72.8748 -44.4354 -44.3516 -44.2917 -44.2835 -44.2506 -44.2423
   -21.1238 -20.9172 -20.7294 -20.1675 -19.8107 -19.4723 -19.3236 -19.1812
   -19.0200 -18.7841 -18.6513 -18.5483 -18.1571 -18.0925 -17.9281 -17.7299
   -12.3548 -12.1197 -12.0502 -11.9115 -11.6861 -11.6647 -11.5582 -10.9477
   -10.8966 -10.6299 -10.5281  -9.8667  -9.6992  -9.3419  -9.1169  -8.6773
    -8.6293  -8.5594  -8.3944  -8.3719  -8.1674  -8.1292  -8.0690  -8.0559
    -7.6958  -7.6293  -7.5005  -7.4796  -7.3638  -7.1763  -7.0736  -6.8679
    -6.6282  -6.3945  -6.1866  -6.1639  -5.9785  -5.9352  -5.7898  -5.7506
    -5.4570  -5.4016  -5.2236  -5.0440  -4.4550  -4.3484  -4.0952  -3.7739
    -2.8881  -2.0519  -2.0357  -1.8388  -1.6545  -1.5653  -1.4940  -1.4827
    -1.3722  -1.3517  -1.2806  -0.7326   0.5563   0.8444   1.0739   1.1349
     1.2081   1.2634   1.3983   1.8357   1.9256   2.1057

          k = 0.1667-0.0962 0.0000 ( 59226 PWs)   bands (ev):

   -72.8834 -72.8748 -44.4353 -44.3516 -44.2917 -44.2835 -44.2506 -44.2423
   -21.3198 -20.5430 -20.3545 -20.3412 -19.9989 -19.9836 -19.8109 -18.7408
   -18.7250 -18.3828 -18.3754 -18.3597 -18.2722 -18.2699 -18.0848 -18.0742
   -12.5118 -12.5099 -12.4138 -11.5892 -11.5801 -11.4302 -11.4285 -10.9328
   -10.9286  -9.9369  -9.9306  -9.6819  -9.3813  -9.3782  -9.2363  -9.2330
    -9.0482  -9.0460  -8.9311  -8.3309  -8.3259  -7.9081  -7.9055  -7.8902
    -7.8510  -7.7762  -7.6195  -7.5827  -7.1490  -7.0924  -6.9657  -6.8952
    -6.8901  -6.8553  -6.5389  -6.5326  -6.2635  -5.3693  -5.3162  -5.1493
    -5.0714  -4.8236  -4.8069  -4.7522  -4.6192  -4.6106  -4.3606  -4.3321
    -2.8938  -2.0509  -2.0366  -1.8455  -1.6585  -1.5658  -1.4897  -1.4793
    -1.3721  -1.3517  -1.2796  -0.7257   0.7274   0.8123   1.0502   1.2068
     1.2901   1.3416   1.5713   1.5857   1.7220   1.9110

          k =-0.5000-0.8660 0.0000 ( 59292 PWs)   bands (ev):

   -72.8834 -72.8748 -44.4353 -44.3516 -44.2918 -44.2835 -44.2506 -44.2423
   -21.0565 -21.0530 -20.4791 -20.4661 -19.4364 -19.4307 -19.4159 -19.4131
   -18.9983 -18.9950 -18.3288 -18.3251 -18.3236 -18.3228 -17.8027 -17.7909
   -12.0742 -12.0714 -12.0698 -12.0692 -11.8866 -11.8763 -11.3351 -11.3329
   -10.2437 -10.2352 -10.1419 -10.1403 -10.1323 -10.1314  -8.6008  -8.5557
    -8.5513  -8.5509  -8.5496  -8.5459  -7.8726  -7.8715  -7.8629  -7.8619
    -7.8308  -7.8233  -7.7931  -7.7539  -7.4945  -7.4935  -6.6206  -6.6111
    -6.3754  -6.3469  -6.3032  -6.2957  -6.1954  -6.1935  -5.7207  -5.6997
    -5.5505  -5.5490  -4.7355  -4.7310  -4.7016  -4.6929  -3.9001  -3.8669
    -2.8762  -2.0505  -2.0327  -1.8398  -1.6558  -1.5648  -1.4925  -1.4850
    -1.3755  -1.3586  -1.2856  -0.8543   0.7207   1.0175   1.1085   1.2051
     1.3251   1.5458   1.5816   1.6219   1.7303   1.7516

          k =-0.1667 0.2887 0.0000 ( 59267 PWs)   bands (ev):

   -72.8834 -72.8748 -44.4353 -44.3516 -44.2917 -44.2835 -44.2506 -44.2423
   -21.2534 -20.6669 -20.6620 -20.1094 -20.1043 -19.5924 -19.5899 -19.1056
   -18.7056 -18.6974 -18.4615 -18.4585 -18.2016 -18.0909 -18.0828 -17.8556
   -12.4904 -12.2109 -12.2089 -11.8262 -11.8237 -11.6644 -11.1976 -11.1950
   -10.3977 -10.3739 -10.1233 -10.1207  -9.5953  -9.5940  -8.8438  -8.8317
    -8.8298  -8.7715  -8.7684  -8.6021  -8.2029  -8.0626  -8.0183  -7.8357
    -7.8330  -7.4450  -7.4427  -7.2876  -7.2672  -7.2140  -7.2126  -6.9647
    -6.9630  -6.5755  -6.5406  -6.1601  -6.1587  -5.8784  -5.4246  -5.3112
    -5.2767  -5.2060  -4.9170  -4.9080  -4.5146  -4.3621  -4.3427  -3.9854
    -2.8909  -2.0513  -2.0361  -1.8422  -1.6559  -1.5657  -1.4917  -1.4810
    -1.3721  -1.3517  -1.2801  -0.7293   0.6373   0.8382   1.0914   1.1952
     1.2793   1.4576   1.5174   1.5751   1.6202   1.7880

          k = 0.3333 0.0000 0.0000 ( 59267 PWs)   bands (ev):

   -72.8834 -72.8748 -44.4353 -44.3516 -44.2918 -44.2835 -44.2506 -44.2423
   -21.2529 -20.6957 -20.6331 -20.1187 -20.0926 -19.6236 -19.5615 -19.1086
   -18.7234 -18.6725 -18.4744 -18.4477 -18.1964 -18.1181 -18.0644 -17.8543
   -12.4891 -12.2193 -12.2012 -11.8374 -11.8158 -11.6619 -11.2176 -11.1752
   -10.3974 -10.3728 -10.1387 -10.1064  -9.6019  -9.5855  -8.8445  -8.8375
    -8.8196  -8.7977  -8.7442  -8.6036  -8.2053  -8.1134  -7.9668  -7.8361
    -7.8299  -7.4513  -7.4355  -7.3082  -7.2396  -7.2252  -7.2010  -6.9757
    -6.9538  -6.6309  -6.4945  -6.1633  -6.1545  -5.8870  -5.4243  -5.3254
    -5.2467  -5.2066  -4.9441  -4.8838  -4.5062  -4.3994  -4.3214  -3.9831
    -2.8830  -2.0504  -2.0335  -1.8429  -1.6581  -1.5652  -1.4904  -1.4824
    -1.3744  -1.3564  -1.2832  -0.8139   0.7425   1.0185   1.1356   1.2340
     1.2977   1.4547   1.5237   1.5663   1.5728   1.8344

          k =-0.1667-0.4811 0.0000 ( 59291 PWs)   bands (ev):

   -72.8834 -72.8748 -44.4354 -44.3516 -44.2917 -44.2835 -44.2506 -44.2423
   -21.1238 -20.9172 -20.7294 -20.1675 -19.8107 -19.4723 -19.3236 -19.1812
   -19.0200 -18.7841 -18.6513 -18.5483 -18.1571 -18.0925 -17.9281 -17.7299
   -12.3548 -12.1197 -12.0502 -11.9115 -11.6861 -11.6647 -11.5582 -10.9477
   -10.8966 -10.6299 -10.5281  -9.8667  -9.6992  -9.3420  -9.1170  -8.6773
    -8.6292  -8.5594  -8.3943  -8.3719  -8.1673  -8.1292  -8.0691  -8.0559
    -7.6958  -7.6293  -7.5004  -7.4796  -7.3638  -7.1763  -7.0735  -6.8679
    -6.6283  -6.3945  -6.1867  -6.1640  -5.9785  -5.9352  -5.7898  -5.7506
    -5.4571  -5.4016  -5.2236  -5.0441  -4.4550  -4.3484  -4.0952  -3.7739
    -2.8881  -2.0519  -2.0357  -1.8388  -1.6545  -1.5653  -1.4940  -1.4827
    -1.3722  -1.3517  -1.2806  -0.7326   0.5563   0.8444   1.0739   1.1349
     1.2081   1.2634   1.3984   1.8357   1.9256   2.1058

          k = 0.5000-0.0962 0.0000 ( 59291 PWs)   bands (ev):

   -72.8834 -72.8748 -44.4353 -44.3516 -44.2917 -44.2835 -44.2506 -44.2423
   -21.1202 -20.9270 -20.7232 -20.1653 -19.8101 -19.4759 -19.3304 -19.1745
   -19.0220 -18.7865 -18.6364 -18.5560 -18.1428 -18.1131 -17.9244 -17.7293
   -12.3525 -12.1207 -12.0479 -11.9171 -11.7006 -11.6475 -11.5607 -10.9484
   -10.8935 -10.6275 -10.5314  -9.8639  -9.6997  -9.3430  -9.1162  -8.6650
    -8.6303  -8.5569  -8.4075  -8.3991  -8.1649  -8.1075  -8.0848  -8.0416
    -7.6905  -7.6300  -7.4993  -7.4811  -7.3567  -7.1783  -7.0745  -6.8651
    -6.6288  -6.4090  -6.2029  -6.1629  -5.9607  -5.9343  -5.7888  -5.7553
    -5.4587  -5.4061  -5.1907  -5.0606  -4.4308  -4.3833  -4.0899  -3.7724
    -2.8762  -2.0505  -2.0327  -1.8398  -1.6565  -1.5648  -1.4926  -1.4850
    -1.3755  -1.3586  -1.2855  -0.8541   0.7038   1.0152   1.1281   1.1990
     1.2578   1.2919   1.5283   1.7535   1.8485   1.9305

          k =-0.3333-0.3849 0.0000 ( 59291 PWs)   bands (ev):

   -72.8834 -72.8748 -44.4353 -44.3516 -44.2917 -44.2835 -44.2506 -44.2423
   -21.1215 -20.9235 -20.7256 -20.1648 -19.8133 -19.4727 -19.3236 -19.1797
   -19.0257 -18.7837 -18.6383 -18.5555 -18.1460 -18.1089 -17.9246 -17.7296
   -12.3540 -12.1173 -12.0511 -11.9149 -11.6877 -11.6624 -11.5597 -10.9482
   -10.8934 -10.6268 -10.5320  -9.8645  -9.6998  -9.3425  -9.1176  -8.6693
    -8.6283  -8.5590  -8.3968  -8.3936  -8.1667  -8.1159  -8.0687  -8.0593
    -7.6908  -7.6282  -7.5075  -7.4735  -7.3546  -7.1784  -7.0754  -6.8765
    -6.6261  -6.3968  -6.1845  -6.1660  -5.9772  -5.9329  -5.7892  -5.7653
    -5.4584  -5.3984  -5.1921  -5.0622  -4.4341  -4.3786  -4.0896  -3.7730
    -2.8802  -2.0510  -2.0341  -1.8395  -1.6554  -1.5650  -1.4930  -1.4842
    -1.3744  -1.3563  -1.2837  -0.8171   0.6565   0.9755   1.0896   1.1815
     1.2169   1.3509   1.4203   1.8211   1.8886   1.9212

          k = 0.5000 0.0962 0.0000 ( 59291 PWs)   bands (ev):

   -72.8834 -72.8748 -44.4353 -44.3516 -44.2917 -44.2835 -44.2506 -44.2423
   -21.1202 -20.9270 -20.7232 -20.1653 -19.8101 -19.4759 -19.3304 -19.1745
   -19.0219 -18.7865 -18.6364 -18.5560 -18.1428 -18.1131 -17.9244 -17.7293
   -12.3525 -12.1207 -12.0479 -11.9171 -11.7006 -11.6475 -11.5607 -10.9483
   -10.8935 -10.6275 -10.5315  -9.8639  -9.6998  -9.3429  -9.1161  -8.6650
    -8.6303  -8.5570  -8.4075  -8.3991  -8.1650  -8.1075  -8.0848  -8.0415
    -7.6905  -7.6299  -7.4994  -7.4812  -7.3567  -7.1784  -7.0744  -6.8651
    -6.6288  -6.4090  -6.2029  -6.1629  -5.9607  -5.9342  -5.7889  -5.7553
    -5.4587  -5.4061  -5.1907  -5.0606  -4.4307  -4.3833  -4.0900  -3.7724
    -2.8762  -2.0505  -2.0327  -1.8398  -1.6565  -1.5648  -1.4926  -1.4850
    -1.3755  -1.3586  -1.2855  -0.8541   0.7038   1.0152   1.1281   1.1990
     1.2578   1.2919   1.5283   1.7535   1.8485   1.9305

          k =-0.3333 0.3849 0.0000 ( 59291 PWs)   bands (ev):

   -72.8834 -72.8748 -44.4353 -44.3516 -44.2917 -44.2835 -44.2506 -44.2423
   -21.1215 -20.9235 -20.7256 -20.1648 -19.8133 -19.4727 -19.3236 -19.1797
   -19.0257 -18.7837 -18.6383 -18.5555 -18.1460 -18.1089 -17.9246 -17.7296
   -12.3540 -12.1173 -12.0511 -11.9149 -11.6878 -11.6624 -11.5596 -10.9482
   -10.8933 -10.6268 -10.5321  -9.8646  -9.6998  -9.3425  -9.1176  -8.6693
    -8.6283  -8.5589  -8.3969  -8.3936  -8.1668  -8.1159  -8.0687  -8.0593
    -7.6907  -7.6282  -7.5075  -7.4734  -7.3546  -7.1783  -7.0755  -6.8765
    -6.6262  -6.3968  -6.1845  -6.1660  -5.9772  -5.9330  -5.7891  -5.7654
    -5.4583  -5.3983  -5.1921  -5.0622  -4.4342  -4.3786  -4.0896  -3.7730
    -2.8802  -2.0510  -2.0341  -1.8395  -1.6554  -1.5650  -1.4930  -1.4842
    -1.3744  -1.3563  -1.2837  -0.8171   0.6565   0.9755   1.0896   1.1816
     1.2169   1.3510   1.4203   1.8212   1.8887   1.9211

          k =-0.1667-0.0962 0.0000 ( 59226 PWs)   bands (ev):

   -72.8834 -72.8748 -44.4353 -44.3516 -44.2917 -44.2835 -44.2506 -44.2423
   -21.3198 -20.5430 -20.3545 -20.3412 -19.9989 -19.9836 -19.8109 -18.7408
   -18.7250 -18.3828 -18.3754 -18.3597 -18.2722 -18.2699 -18.0848 -18.0742
   -12.5118 -12.5099 -12.4138 -11.5892 -11.5801 -11.4302 -11.4285 -10.9327
   -10.9286  -9.9369  -9.9306  -9.6818  -9.3813  -9.3781  -9.2364  -9.2330
    -9.0482  -9.0460  -8.9311  -8.3310  -8.3260  -7.9081  -7.9055  -7.8902
    -7.8509  -7.7763  -7.6195  -7.5827  -7.1490  -7.0924  -6.9658  -6.8952
    -6.8901  -6.8553  -6.5388  -6.5325  -6.2636  -5.3693  -5.3162  -5.1492
    -5.0715  -4.8236  -4.8068  -4.7522  -4.6192  -4.6106  -4.3606  -4.3321
    -2.8938  -2.0509  -2.0366  -1.8455  -1.6585  -1.5658  -1.4897  -1.4793
    -1.3721  -1.3517  -1.2796  -0.7257   0.7274   0.8123   1.0502   1.2068
     1.2901   1.3416   1.5714   1.5857   1.7220   1.9107

          k =-0.0000-0.1925 0.0000 ( 59226 PWs)   bands (ev):

   -72.8834 -72.8748 -44.4353 -44.3516 -44.2917 -44.2835 -44.2506 -44.2423
   -21.3199 -20.5368 -20.3592 -20.3478 -19.9918 -19.9813 -19.8153 -18.7357
   -18.7250 -18.4151 -18.3682 -18.3577 -18.2595 -18.2581 -18.0874 -18.0780
   -12.5199 -12.5020 -12.4136 -11.5892 -11.5814 -11.4377 -11.4178 -10.9335
   -10.9301  -9.9345  -9.9332  -9.6817  -9.3864  -9.3715  -9.2362  -9.2354
    -9.0477  -9.0459  -8.9318  -8.3292  -8.3270  -7.9086  -7.9022  -7.8703
    -7.8506  -7.7786  -7.6387  -7.6019  -7.1173  -7.0941  -6.9640  -6.8957
    -6.8914  -6.8677  -6.5377  -6.5330  -6.2641  -5.3506  -5.3241  -5.1496
    -5.0710  -4.8803  -4.7830  -4.7587  -4.6020  -4.5874  -4.3598  -4.3443
    -2.8976  -2.0513  -2.0379  -1.8451  -1.6574  -1.5660  -1.4904  -1.4786
    -1.3710  -1.3494  -1.2782  -0.6762   0.6394   0.7579   1.0343   1.1761
     1.2462   1.4033   1.5522   1.6100   1.6851   1.9900

          k = 0.5000-0.8660 0.0000 ( 59292 PWs)   bands (ev):

   -72.8834 -72.8748 -44.4353 -44.3516 -44.2918 -44.2835 -44.2506 -44.2423
   -21.0565 -21.0531 -20.4791 -20.4661 -19.4364 -19.4307 -19.4159 -19.4131
   -18.9982 -18.9950 -18.3287 -18.3251 -18.3237 -18.3228 -17.8027 -17.7909
   -12.0741 -12.0713 -12.0698 -12.0692 -11.8866 -11.8763 -11.3350 -11.3329
   -10.2437 -10.2353 -10.1419 -10.1404 -10.1323 -10.1314  -8.6008  -8.5556
    -8.5513  -8.5509  -8.5496  -8.5459  -7.8726  -7.8715  -7.8629  -7.8619
    -7.8309  -7.8233  -7.7931  -7.7539  -7.4946  -7.4936  -6.6205  -6.6110
    -6.3754  -6.3469  -6.3032  -6.2957  -6.1953  -6.1934  -5.7207  -5.6998
    -5.5506  -5.5491  -4.7355  -4.7310  -4.7016  -4.6929  -3.9001  -3.8670
    -2.8762  -2.0505  -2.0327  -1.8398  -1.6558  -1.5648  -1.4925  -1.4850
    -1.3755  -1.3586  -1.2856  -0.8543   0.7207   1.0175   1.1085   1.2051
     1.3251   1.5458   1.5815   1.6218   1.7303   1.7515

          k =-1.0000 0.0000 0.0000 ( 59292 PWs)   bands (ev):

   -72.8834 -72.8748 -44.4354 -44.3516 -44.2917 -44.2835 -44.2506 -44.2423
   -21.0844 -21.0216 -20.4813 -20.4700 -19.4375 -19.4329 -19.4172 -19.4009
   -19.0224 -18.9721 -18.3963 -18.3167 -18.3081 -18.2808 -17.8025 -17.7934
   -12.1229 -12.0727 -12.0506 -12.0341 -11.8865 -11.8766 -11.3580 -11.3119
   -10.2493 -10.2477 -10.1366 -10.1365 -10.1289 -10.1288  -8.6435  -8.5905
    -8.5562  -8.5350  -8.5184  -8.4926  -7.8843  -7.8751  -7.8672  -7.8652
    -7.8195  -7.8172  -7.7961  -7.7679  -7.5230  -7.4678  -6.6171  -6.6112
    -6.3693  -6.3482  -6.3047  -6.2764  -6.2176  -6.1749  -5.7500  -5.6756
    -5.5753  -5.5245  -4.8495  -4.6989  -4.6782  -4.6398  -3.8925  -3.8783
    -2.8921  -2.0523  -2.0359  -1.8385  -1.6541  -1.5655  -1.4943  -1.4820
    -1.3711  -1.3496  -1.2791  -0.6839   0.5166   0.7561   1.0905   1.1072
     1.1595   1.5192   1.5781   1.6195   1.6329   1.9260

 ------ SPIN DOWN ----------


          k = 0.1667 0.2887 0.0000 ( 59267 PWs)   bands (ev):

   -68.6880 -68.6782 -40.3680 -40.2689 -40.1231 -40.1133 -40.0453 -40.0354
   -21.2497 -20.6626 -20.6590 -20.1054 -20.1008 -19.5884 -19.5867 -19.1018
   -18.7001 -18.6943 -18.4576 -18.4548 -18.1969 -18.0869 -18.0800 -17.8516
   -12.4881 -12.2085 -12.2066 -11.8240 -11.8216 -11.6624 -11.1949 -11.1929
   -10.3950 -10.3715 -10.1200 -10.1187  -9.5926  -9.5919  -8.8293  -8.8272
    -8.8237  -8.7691  -8.7660  -8.5999  -8.2006  -8.0382  -8.0092  -7.8332
    -7.8308  -7.4414  -7.4402  -7.2681  -7.2538  -7.2116  -7.2103  -6.9623
    -6.9606  -6.5541  -6.5328  -6.1574  -6.1564  -5.8622  -5.4216  -5.2852
    -5.2664  -5.2035  -4.9027  -4.8954  -4.4973  -4.3474  -4.3347  -3.9719
    -1.4499   0.3942   0.8123   0.9584   1.1077   1.1717   1.2835   1.3576
     1.3936   1.4653   1.5456   1.6176   1.6405   1.7296   1.8832   2.0297
     2.0548   2.0694   2.1435   2.1685   2.3076   2.3466

          k = 0.1667-0.4811 0.0000 ( 59291 PWs)   bands (ev):

   -68.6880 -68.6782 -40.3680 -40.2689 -40.1231 -40.1133 -40.0453 -40.0354
   -21.1197 -20.9141 -20.7256 -20.1636 -19.8070 -19.4685 -19.3198 -19.1772
   -19.0163 -18.7805 -18.6459 -18.5454 -18.1516 -18.0902 -17.9241 -17.7259
   -12.3524 -12.1173 -12.0481 -11.9094 -11.6842 -11.6622 -11.5560 -10.9451
   -10.8939 -10.6272 -10.5258  -9.8638  -9.6968  -9.3392  -9.1145  -8.6537
    -8.6268  -8.5564  -8.3922  -8.3604  -8.1650  -8.1125  -8.0666  -8.0537
    -7.6930  -7.6269  -7.4979  -7.4775  -7.3460  -7.1735  -7.0712  -6.8519
    -6.6251  -6.3794  -6.1694  -6.1614  -5.9637  -5.9322  -5.7872  -5.7357
    -5.4546  -5.3879  -5.1997  -5.0357  -4.4340  -4.3427  -4.0817  -3.7603
    -1.4407   0.3842   0.8098   0.9222   1.0236   1.1326   1.2214   1.2625
     1.3680   1.4085   1.5643   1.7307   1.7710   1.8865   1.9237   2.0599
     2.1129   2.1298   2.1647   2.2084   2.3150   2.3439

          k = 0.1667-0.0962 0.0000 ( 59226 PWs)   bands (ev):

   -68.6880 -68.6782 -40.3680 -40.2689 -40.1231 -40.1132 -40.0453 -40.0354
   -21.3161 -20.5388 -20.3507 -20.3383 -19.9941 -19.9805 -19.8078 -18.7355
   -18.7216 -18.3776 -18.3715 -18.3565 -18.2681 -18.2660 -18.0811 -18.0711
   -12.5094 -12.5077 -12.4115 -11.5867 -11.5784 -11.4278 -11.4261 -10.9301
   -10.9263  -9.9341  -9.9286  -9.6791  -9.3788  -9.3758  -9.2334  -9.2304
    -9.0457  -9.0439  -8.9125  -8.3278  -8.3232  -7.9052  -7.9032  -7.8676
    -7.8475  -7.7740  -7.6028  -7.5730  -7.1234  -7.0824  -6.9631  -6.8925
    -6.8881  -6.8452  -6.5361  -6.5304  -6.2611  -5.3429  -5.3055  -5.1465
    -5.0687  -4.8011  -4.7906  -4.7426  -4.6056  -4.5992  -4.3461  -4.3230
    -1.4589   0.4067   0.8123   0.9640   1.0632   1.1464   1.2036   1.3072
     1.5021   1.5271   1.6036   1.6650   1.7861   1.8194   1.8707   1.9345
     2.0252   2.0682   2.1180   2.1381   2.2583   2.3481

          k =-0.5000-0.8660 0.0000 ( 59292 PWs)   bands (ev):

   -68.6880 -68.6782 -40.3680 -40.2690 -40.1231 -40.1133 -40.0453 -40.0354
   -21.0517 -21.0502 -20.4752 -20.4631 -19.4310 -19.4260 -19.4131 -19.4101
   -18.9936 -18.9923 -18.3230 -18.3215 -18.3208 -18.3190 -17.7984 -17.7874
   -12.0709 -12.0687 -12.0681 -12.0673 -11.8842 -11.8748 -11.3323 -11.3309
   -10.2406 -10.2333 -10.1388 -10.1376 -10.1300 -10.1292  -8.5720  -8.5509
    -8.5494  -8.5486  -8.5472  -8.5381  -7.8695  -7.8687  -7.8610  -7.8599
    -7.8276  -7.8202  -7.7751  -7.7439  -7.4929  -7.4907  -6.6173  -6.6091
    -6.3433  -6.3262  -6.2947  -6.2874  -6.1927  -6.1906  -5.7018  -5.6916
    -5.5476  -5.5467  -4.7130  -4.7074  -4.6938  -4.6886  -3.8832  -3.8577
    -1.4174   0.1425   0.8230   0.9991   1.0578   1.1554   1.2486   1.3903
     1.5027   1.5567   1.5721   1.7125   1.7626   1.8736   1.9080   1.9405
     1.9767   2.0929   2.1723   2.1888   2.3231   2.3552

          k =-0.1667 0.2887 0.0000 ( 59267 PWs)   bands (ev):

   -68.6880 -68.6782 -40.3680 -40.2689 -40.1231 -40.1133 -40.0453 -40.0354
   -21.2497 -20.6626 -20.6590 -20.1054 -20.1008 -19.5884 -19.5867 -19.1018
   -18.7001 -18.6943 -18.4576 -18.4548 -18.1969 -18.0869 -18.0800 -17.8516
   -12.4881 -12.2085 -12.2066 -11.8240 -11.8216 -11.6624 -11.1949 -11.1929
   -10.3950 -10.3715 -10.1200 -10.1188  -9.5926  -9.5918  -8.8293  -8.8271
    -8.8237  -8.7691  -8.7661  -8.5998  -8.2006  -8.0382  -8.0092  -7.8332
    -7.8307  -7.4414  -7.4401  -7.2681  -7.2538  -7.2116  -7.2103  -6.9623
    -6.9607  -6.5541  -6.5328  -6.1574  -6.1563  -5.8621  -5.4217  -5.2852
    -5.2664  -5.2034  -4.9027  -4.8954  -4.4973  -4.3474  -4.3347  -3.9719
    -1.4499   0.3941   0.8124   0.9584   1.1077   1.1717   1.2835   1.3576
     1.3936   1.4653   1.5456   1.6176   1.6405   1.7296   1.8832   2.0297
     2.0548   2.0694   2.1435   2.1685   2.3075   2.3464

          k = 0.3333 0.0000 0.0000 ( 59267 PWs)   bands (ev):

   -68.6880 -68.6782 -40.3680 -40.2690 -40.1231 -40.1132 -40.0453 -40.0354
   -21.2492 -20.6902 -20.6312 -20.1146 -20.0896 -19.6179 -19.5596 -19.1044
   -18.7175 -18.6707 -18.4698 -18.4443 -18.1924 -18.1121 -18.0625 -17.8505
   -12.4868 -12.2165 -12.1992 -11.8348 -11.8138 -11.6601 -11.2142 -11.1737
   -10.3948 -10.3704 -10.1351 -10.1047  -9.5991  -9.5836  -8.8344  -8.8276
    -8.8149  -8.7941  -8.7431  -8.6011  -8.2028  -8.0841  -7.9630  -7.8337
    -7.8279  -7.4476  -7.4333  -7.2856  -7.2314  -7.2220  -7.1994  -6.9727
    -6.9519  -6.6030  -6.4904  -6.1605  -6.1523  -5.8684  -5.4214  -5.3025
    -5.2381  -5.2039  -4.9246  -4.8754  -4.4905  -4.3800  -4.3141  -3.9703
    -1.4349   0.2224   0.8626   0.9603   1.1068   1.1442   1.2520   1.4317
     1.4663   1.4960   1.5554   1.7053   1.7550   1.8576   1.8950   1.9192
     2.0175   2.0637   2.1454   2.2172   2.3070   2.3474

          k =-0.1667-0.4811 0.0000 ( 59291 PWs)   bands (ev):

   -68.6880 -68.6782 -40.3680 -40.2689 -40.1231 -40.1133 -40.0453 -40.0354
   -21.1197 -20.9141 -20.7256 -20.1636 -19.8070 -19.4685 -19.3198 -19.1772
   -19.0163 -18.7805 -18.6459 -18.5454 -18.1516 -18.0902 -17.9241 -17.7259
   -12.3525 -12.1173 -12.0481 -11.9094 -11.6842 -11.6622 -11.5560 -10.9451
   -10.8939 -10.6272 -10.5258  -9.8637  -9.6968  -9.3392  -9.1146  -8.6537
    -8.6267  -8.5565  -8.3922  -8.3604  -8.1650  -8.1125  -8.0667  -8.0537
    -7.6930  -7.6270  -7.4979  -7.4775  -7.3460  -7.1735  -7.0712  -6.8519
    -6.6252  -6.3794  -6.1694  -6.1614  -5.9637  -5.9321  -5.7871  -5.7357
    -5.4546  -5.3879  -5.1997  -5.0357  -4.4340  -4.3427  -4.0817  -3.7603
    -1.4407   0.3842   0.8098   0.9222   1.0236   1.1326   1.2214   1.2625
     1.3680   1.4085   1.5643   1.7307   1.7710   1.8866   1.9237   2.0599
     2.1129   2.1298   2.1647   2.2081   2.3145   2.3432

          k = 0.5000-0.0962 0.0000 ( 59291 PWs)   bands (ev):

   -68.6880 -68.6782 -40.3680 -40.2690 -40.1231 -40.1133 -40.0453 -40.0354
   -21.1165 -20.9229 -20.7201 -20.1617 -19.8064 -19.4717 -19.3259 -19.1714
   -19.0180 -18.7826 -18.6328 -18.5521 -18.1388 -18.1086 -17.9209 -17.7253
   -12.3503 -12.1182 -12.0459 -11.9146 -11.6978 -11.6462 -11.5582 -10.9458
   -10.8910 -10.6250 -10.5289  -9.8612  -9.6973  -9.3401  -9.1139  -8.6447
    -8.6275  -8.5542  -8.3979  -8.3852  -8.1628  -8.0967  -8.0813  -8.0403
    -7.6882  -7.6276  -7.4969  -7.4789  -7.3409  -7.1753  -7.0720  -6.8501
    -6.6256  -6.3884  -6.1826  -6.1606  -5.9507  -5.9314  -5.7863  -5.7389
    -5.4561  -5.3910  -5.1759  -5.0479  -4.4134  -4.3706  -4.0779  -3.7595
    -1.4174   0.1443   0.8216   0.9757   1.0417   1.1536   1.1972   1.2632
     1.4024   1.5898   1.6806   1.7806   1.8802   1.9073   1.9703   1.9895
     2.0279   2.0924   2.1980   2.2472   2.3068   2.3577

          k =-0.3333-0.3849 0.0000 ( 59291 PWs)   bands (ev):

   -68.6880 -68.6782 -40.3680 -40.2690 -40.1231 -40.1133 -40.0453 -40.0354
   -21.1176 -20.9197 -20.7222 -20.1612 -19.8093 -19.4690 -19.3198 -19.1759
   -19.0213 -18.7801 -18.6344 -18.5517 -18.1415 -18.1050 -17.9210 -17.7256
   -12.3517 -12.1150 -12.0490 -11.9125 -11.6858 -11.6601 -11.5573 -10.9457
   -10.8910 -10.6244 -10.5294  -9.8618  -9.6975  -9.3397  -9.1152  -8.6477
    -8.6258  -8.5560  -8.3941  -8.3764  -8.1645  -8.1029  -8.0663  -8.0569
    -7.6885  -7.6259  -7.5044  -7.4719  -7.3395  -7.1753  -7.0729  -6.8579
    -6.6232  -6.3808  -6.1689  -6.1628  -5.9619  -5.9301  -5.7866  -5.7468
    -5.4558  -5.3855  -5.1770  -5.0488  -4.4163  -4.3669  -4.0777  -3.7598
    -1.4254   0.2110   0.8088   0.9680   1.0316   1.1519   1.2236   1.2912
     1.3706   1.4982   1.6859   1.7560   1.8558   1.8993   1.9440   2.0263
     2.0667   2.0875   2.1359   2.2099   2.3190   2.3518

          k = 0.5000 0.0962 0.0000 ( 59291 PWs)   bands (ev):

   -68.6880 -68.6782 -40.3680 -40.2690 -40.1231 -40.1133 -40.0453 -40.0354
   -21.1165 -20.9229 -20.7201 -20.1617 -19.8064 -19.4717 -19.3259 -19.1713
   -19.0179 -18.7826 -18.6328 -18.5521 -18.1388 -18.1086 -17.9209 -17.7253
   -12.3503 -12.1183 -12.0459 -11.9146 -11.6978 -11.6461 -11.5582 -10.9458
   -10.8910 -10.6250 -10.5290  -9.8612  -9.6974  -9.3401  -9.1138  -8.6447
    -8.6275  -8.5543  -8.3979  -8.3852  -8.1628  -8.0967  -8.0813  -8.0403
    -7.6883  -7.6275  -7.4969  -7.4790  -7.3409  -7.1754  -7.0720  -6.8501
    -6.6255  -6.3884  -6.1826  -6.1605  -5.9508  -5.9314  -5.7864  -5.7389
    -5.4561  -5.3911  -5.1759  -5.0478  -4.4134  -4.3706  -4.0779  -3.7595
    -1.4174   0.1443   0.8216   0.9757   1.0417   1.1536   1.1971   1.2632
     1.4024   1.5898   1.6806   1.7806   1.8802   1.9073   1.9703   1.9895
     2.0279   2.0924   2.1980   2.2472   2.3064   2.3571

          k =-0.3333 0.3849 0.0000 ( 59291 PWs)   bands (ev):

   -68.6880 -68.6782 -40.3680 -40.2690 -40.1231 -40.1133 -40.0453 -40.0354
   -21.1176 -20.9197 -20.7222 -20.1612 -19.8093 -19.4690 -19.3198 -19.1759
   -19.0213 -18.7801 -18.6344 -18.5517 -18.1415 -18.1050 -17.9210 -17.7256
   -12.3517 -12.1150 -12.0490 -11.9125 -11.6858 -11.6602 -11.5573 -10.9457
   -10.8909 -10.6243 -10.5294  -9.8618  -9.6974  -9.3397  -9.1152  -8.6477
    -8.6259  -8.5560  -8.3941  -8.3764  -8.1645  -8.1029  -8.0663  -8.0569
    -7.6884  -7.6259  -7.5044  -7.4719  -7.3395  -7.1753  -7.0729  -6.8579
    -6.6233  -6.3808  -6.1689  -6.1628  -5.9619  -5.9302  -5.7865  -5.7468
    -5.4557  -5.3855  -5.1771  -5.0488  -4.4163  -4.3669  -4.0777  -3.7598
    -1.4254   0.2110   0.8088   0.9680   1.0315   1.1519   1.2236   1.2913
     1.3706   1.4982   1.6859   1.7560   1.8559   1.8993   1.9440   2.0263
     2.0667   2.0876   2.1360   2.2099   2.3193   2.3521

          k =-0.1667-0.0962 0.0000 ( 59226 PWs)   bands (ev):

   -68.6880 -68.6782 -40.3680 -40.2689 -40.1231 -40.1132 -40.0453 -40.0354
   -21.3161 -20.5388 -20.3507 -20.3383 -19.9941 -19.9805 -19.8077 -18.7355
   -18.7216 -18.3776 -18.3715 -18.3565 -18.2681 -18.2660 -18.0811 -18.0711
   -12.5094 -12.5077 -12.4115 -11.5866 -11.5783 -11.4278 -11.4261 -10.9301
   -10.9263  -9.9341  -9.9286  -9.6791  -9.3788  -9.3758  -9.2334  -9.2305
    -9.0457  -9.0439  -8.9125  -8.3278  -8.3233  -7.9052  -7.9031  -7.8676
    -7.8475  -7.7740  -7.6028  -7.5730  -7.1234  -7.0824  -6.9632  -6.8925
    -6.8881  -6.8452  -6.5361  -6.5304  -6.2611  -5.3429  -5.3055  -5.1464
    -5.0688  -4.8011  -4.7906  -4.7427  -4.6056  -4.5992  -4.3461  -4.3230
    -1.4589   0.4067   0.8123   0.9639   1.0632   1.1464   1.2035   1.3073
     1.5022   1.5271   1.6036   1.6650   1.7861   1.8194   1.8707   1.9346
     2.0251   2.0683   2.1180   2.1381   2.2583   2.3481

          k =-0.0000-0.1925 0.0000 ( 59226 PWs)   bands (ev):

   -68.6880 -68.6782 -40.3680 -40.2689 -40.1231 -40.1133 -40.0453 -40.0354
   -21.3162 -20.5332 -20.3548 -20.3442 -19.9880 -19.9782 -19.8116 -18.7311
   -18.7215 -18.4076 -18.3641 -18.3544 -18.2578 -18.2546 -18.0833 -18.0745
   -12.5172 -12.5001 -12.4113 -11.5867 -11.5793 -11.4351 -11.4160 -10.9308
   -10.9277  -9.9321  -9.9308  -9.6789  -9.3836  -9.3695  -9.2334  -9.2325
    -9.0454  -9.0437  -8.9129  -8.3264  -8.3240  -7.9061  -7.9001  -7.8556
    -7.8446  -7.7760  -7.6149  -7.5887  -7.1016  -7.0823  -6.9616  -6.8931
    -6.8891  -6.8547  -6.5351  -6.5308  -6.2616  -5.3301  -5.3102  -5.1468
    -5.0683  -4.8478  -4.7720  -4.7446  -4.5953  -4.5792  -4.3458  -4.3315
    -1.4660   0.5450   0.7685   0.9513   1.0675   1.1430   1.2283   1.2454
     1.4754   1.4796   1.5342   1.6023   1.7213   1.8158   1.9137   2.0031
     2.0601   2.0662   2.1441   2.1483   2.1968   2.3370

          k = 0.5000-0.8660 0.0000 ( 59292 PWs)   bands (ev):

   -68.6880 -68.6782 -40.3680 -40.2690 -40.1231 -40.1133 -40.0453 -40.0354
   -21.0517 -21.0503 -20.4752 -20.4631 -19.4310 -19.4260 -19.4131 -19.4100
   -18.9936 -18.9922 -18.3230 -18.3216 -18.3209 -18.3189 -17.7984 -17.7874
   -12.0709 -12.0688 -12.0682 -12.0672 -11.8841 -11.8748 -11.3322 -11.3309
   -10.2406 -10.2334 -10.1388 -10.1376 -10.1300 -10.1292  -8.5720  -8.5509
    -8.5494  -8.5486  -8.5471  -8.5381  -7.8695  -7.8687  -7.8610  -7.8599
    -7.8277  -7.8203  -7.7751  -7.7439  -7.4930  -7.4907  -6.6173  -6.6090
    -6.3433  -6.3262  -6.2947  -6.2874  -6.1927  -6.1905  -5.7018  -5.6916
    -5.5477  -5.5468  -4.7130  -4.7074  -4.6938  -4.6886  -3.8832  -3.8577
    -1.4174   0.1425   0.8230   0.9991   1.0578   1.1554   1.2486   1.3903
     1.5027   1.5566   1.5721   1.7126   1.7626   1.8736   1.9080   1.9405
     1.9767   2.0929   2.1726   2.1888   2.3228   2.3550

          k =-1.0000 0.0000 0.0000 ( 59292 PWs)   bands (ev):

   -68.6880 -68.6782 -40.3680 -40.2690 -40.1231 -40.1133 -40.0453 -40.0354
   -21.0790 -21.0198 -20.4771 -20.4666 -19.4331 -19.4287 -19.4134 -19.3984
   -19.0168 -18.9703 -18.3876 -18.3129 -18.3050 -18.2803 -17.7981 -17.7897
   -12.1185 -12.0704 -12.0491 -12.0334 -11.8842 -11.8748 -11.3545 -11.3104
   -10.2462 -10.2444 -10.1341 -10.1340 -10.1270 -10.1265  -8.6127  -8.5859
    -8.5535  -8.5336  -8.5177  -8.4889  -7.8806  -7.8720  -7.8647  -7.8628
    -7.8152  -7.8142  -7.7778  -7.7550  -7.5193  -7.4668  -6.6144  -6.6090
    -6.3436  -6.3279  -6.2938  -6.2702  -6.2135  -6.1729  -5.7299  -5.6670
    -5.5711  -5.5234  -4.8109  -4.6870  -4.6705  -4.6386  -3.8783  -3.8651
    -1.4481   0.5097   0.8231   0.9205   1.0231   1.1108   1.2152   1.2677
     1.3461   1.4764   1.6064   1.6391   1.6705   1.7702   1.8618   1.9272
     2.0792   2.1114   2.1766   2.1792   2.3405   2.3662

     the Fermi energy is    -1.1611 ev

!    total energy              =   -1133.82804542 Ry

     total all-electron energy =     -6753.503748 Ry
     estimated scf accuracy    <       0.00000002 Ry
     smearing contrib. (-TS)   =      -0.00000000 Ry
     internal energy E=F+TS    =   -1133.82804542 Ry

     The total energy is F=E-TS. E is the sum of the following terms:
     one-electron contribution =   -3953.44508946 Ry
     hartree contribution      =    2004.88382151 Ry
     xc contribution           =    -186.01945624 Ry
     ewald contribution        =    1360.12955627 Ry
     DFT-D3 Dispersion         =      -0.13379078 Ry
     one-center paw contrib.   =    -359.24308673 Ry

     total magnetization       =    10.00 Bohr mag/cell
     absolute magnetization    =    10.01 Bohr mag/cell

     convergence has been achieved in  15 iterations

     Writing output data file ./mytmp/Crdimer0.141-0.1.save/
 
     init_run     :     18.58s CPU     19.80s WALL (       1 calls)
     electrons    :    509.72s CPU    543.08s WALL (       1 calls)

     Called by init_run:
     wfcinit      :     13.81s CPU     14.60s WALL (       1 calls)
     potinit      :      1.53s CPU      1.62s WALL (       1 calls)
     hinit0       :      1.52s CPU      1.61s WALL (       1 calls)

     Called by electrons:
     c_bands      :    405.57s CPU    430.14s WALL (      15 calls)
     sum_band     :     80.49s CPU     85.81s WALL (      15 calls)
     v_of_rho     :      4.87s CPU      5.27s WALL (      16 calls)
     newd         :     10.13s CPU     13.24s WALL (      16 calls)
     PAW_pot      :      7.91s CPU      7.98s WALL (      16 calls)
     mix_rho      :      1.05s CPU      1.08s WALL (      15 calls)

     Called by c_bands:
     init_us_2    :      5.39s CPU      5.41s WALL (     930 calls)
     cegterg      :    392.35s CPU    416.86s WALL (     450 calls)

     Called by *egterg:
     cdiaghg      :     25.79s CPU     40.39s WALL (    2816 calls)
     h_psi        :    252.61s CPU    262.07s WALL (    2846 calls)
     s_psi        :     28.45s CPU     28.49s WALL (    2846 calls)
     g_psi        :      0.73s CPU      0.75s WALL (    2366 calls)

     Called by h_psi:
     h_psi:calbec :     29.10s CPU     29.74s WALL (    2846 calls)
     vloc_psi     :    192.81s CPU    201.53s WALL (    2846 calls)
     add_vuspsi   :     28.49s CPU     28.58s WALL (    2846 calls)

     General routines
     calbec       :     39.16s CPU     39.97s WALL (    3296 calls)
     fft          :      4.54s CPU      5.52s WALL (     394 calls)
     ffts         :      0.12s CPU      0.12s WALL (      62 calls)
     fftw         :    199.70s CPU    208.54s WALL (  262440 calls)
     interpolate  :      0.44s CPU      0.47s WALL (      32 calls)
 
     Parallel routines
     fft_scatt_xy :     32.03s CPU     33.22s WALL (  262896 calls)
     fft_scatt_yz :     79.56s CPU     84.57s WALL (  262896 calls)
 
     PWSCF        :   8m50.35s CPU   9m26.97s WALL

 
   This run was terminated on:  12: 9:24   2Apr2021            

=------------------------------------------------------------------------------=
   JOB DONE.
=------------------------------------------------------------------------------=
