
     Program PWSCF v.6.7MaX starts on  2Apr2021 at 14:20: 9 

     This program is part of the open-source Quantum ESPRESSO suite
     for quantum simulation of materials; please cite
         "P. Giannozzi et al., J. Phys.:Condens. Matter 21 395502 (2009);
         "P. Giannozzi et al., J. Phys.:Condens. Matter 29 465901 (2017);
          URL http://www.quantum-espresso.org", 
     in publications or presentations arising from this work. More details at
     http://www.quantum-espresso.org/quote

     Parallel version (MPI), running on    48 processors

     MPI processes distributed on     1 nodes
     R & G space division:  proc/nbgrp/npool/nimage =      48
     Reading input from Crdimer0.1425-0.4.scf.in

     Current dimensions of program PWSCF are:
     Max number of different atomic species (ntypx) = 10
     Max number of k-points (npk) =  40000
     Max angular momentum in pseudopotentials (lmaxx) =  3
     file N.pbe-n-kjpaw_psl.1.0.0.UPF: wavefunction(s)  2S renormalized
     file Cr.pbe-spn-kjpaw_psl.1.0.0.UPF: wavefunction(s)  3S 3P 3D renormalized
     file Cr.pbe-spn-kjpaw_psl.1.0.0.UPF: wavefunction(s)  3S 3P 3D renormalized

     --------------------------------------------
     Parameters for DFT-D3 Dispersion Correction:
     --------------------------------------------
       Reference C6 values for interpolation: 

         atom   Coordination number   C6
         B          0.000           214.36
         B          0.971           150.74
         B          1.944           106.23
         B          2.913            62.89
         B          4.586            56.06
         N          0.000            50.54
         N          0.994            44.25
         N          2.014            39.35
         N          2.990            31.16
         Cr1        0.000          1381.48
         Cr1        1.827           571.38
         Cr1       10.619           306.69
         Cr2        0.000          1381.48
         Cr2        1.827           571.38
         Cr2       10.619           306.69

       Values used:

         atom   Coordination number  R0_AB[au]  C6      C8
         B          3.337            3.039     62.89   2505.96
         B          3.336            3.039     62.89   2505.98
         B          3.336            3.039     62.89   2505.99
         B          3.335            3.039     62.89   2506.01
         B          3.354            3.039     62.88   2505.53
         B          3.335            3.039     62.89   2506.00
         N          3.135            2.478     31.22    688.69
         N          3.143            2.478     31.21    688.62
         N          3.135            2.478     31.22    688.68
         N          3.134            2.478     31.22    688.70
         N          3.151            2.478     31.21    688.55
         N          3.135            2.478     31.22    688.69
         N          3.148            2.478     31.21    688.58
         N          3.134            2.478     31.22    688.70
         N          3.134            2.478     31.22    688.70
         B          3.351            3.039     62.88   2505.60
         B          3.336            3.039     62.89   2505.98
         B          3.335            3.039     62.89   2506.00
         B          3.354            3.039     62.88   2505.53
         B          3.337            3.039     62.89   2505.96
         B          3.351            3.039     62.88   2505.60
         N          3.148            2.478     31.21    688.58
         B          3.336            3.039     62.89   2505.99
         B          3.356            3.039     62.88   2505.48
         B          3.336            3.039     62.89   2506.00
         N          3.135            2.478     31.22    688.69
         N          3.143            2.478     31.21    688.62
         N          3.134            2.478     31.22    688.70
         N          3.134            2.478     31.22    688.70
         N          3.135            2.478     31.22    688.68
         N          3.134            2.478     31.22    688.70
         B          3.336            3.039     62.89   2506.00
         Cr1        0.698            3.252   1338.77 123552.89
         Cr2        0.698            3.252   1338.77 123552.89

         Molecular C6 ( Ry / a.u.^6 ) =     78675.18


     Subspace diagonalization in iterative solution of the eigenvalue problem:
     one sub-group per band group will be used
     scalapack distributed-memory algorithm (size of sub-group:  6*  6 procs)

 
     Parallelization info
     --------------------
     sticks:   dense  smooth     PW     G-vecs:    dense   smooth      PW
     Min         235      98     26                36277     9874    1408
     Max         236      99     27                36282     9883    1425
     Sum       11311    4741   1285              1741401   474235   68095
 


     bravais-lattice index     =            4
     lattice parameter (alat)  =      18.9275  a.u.
     unit-cell volume          =   10553.3021 (a.u.)^3
     number of atoms/cell      =           34
     number of atomic types    =            4
     number of electrons       =       156.00
     number of Kohn-Sham states=           94
     kinetic-energy cutoff     =      48.0000  Ry
     charge density cutoff     =     457.0000  Ry
     scf convergence threshold =      1.0E-07
     mixing beta               =       0.5000
     number of iterations used =            8  plain     mixing
     Exchange-correlation= SLA  PW   PBX  PBC
                           (   1   4   3   4   0   0   0)

     celldm(1)=  18.927497  celldm(2)=   0.000000  celldm(3)=   1.797125
     celldm(4)=   0.000000  celldm(5)=   0.000000  celldm(6)=   0.000000

     crystal axes: (cart. coord. in units of alat)
               a(1) = (   1.000000   0.000000   0.000000 )  
               a(2) = (  -0.500000   0.866025   0.000000 )  
               a(3) = (   0.000000   0.000000   1.797125 )  

     reciprocal axes: (cart. coord. in units 2 pi/alat)
               b(1) = (  1.000000  0.577350  0.000000 )  
               b(2) = (  0.000000  1.154701  0.000000 )  
               b(3) = (  0.000000  0.000000  0.556444 )  


     PseudoPot. # 1 for B  read from file:
     /home/sf05/q-e-qe-6.7MaX-Release/pseudo/B.pbe-n-kjpaw_psl.1.0.0.UPF
     MD5 check sum: d9c678ba5d3b2fd7b74e61139c9288d8
     Pseudo is Projector augmented-wave + core cor, Zval =  3.0
     Generated using "atomic" code by A. Dal Corso  v.5.1.2
     Shape of augmentation charge: PSQ
     Using radial grid of 1059 points,  4 beta functions with: 
                l(1) =   0
                l(2) =   0
                l(3) =   1
                l(4) =   1
     Q(r) pseudized with 0 coefficients 


     PseudoPot. # 2 for N  read from file:
     /home/sf05/q-e-qe-6.7MaX-Release/pseudo/N.pbe-n-kjpaw_psl.1.0.0.UPF
     MD5 check sum: e0e4e94a9c4025c5b51bd7d8793849bd
     Pseudo is Projector augmented-wave + core cor, Zval =  5.0
     Generated using "atomic" code by A. Dal Corso  v.5.1.2
     Shape of augmentation charge: PSQ
     Using radial grid of 1085 points,  4 beta functions with: 
                l(1) =   0
                l(2) =   0
                l(3) =   1
                l(4) =   1
     Q(r) pseudized with 0 coefficients 


     PseudoPot. # 3 for Cr read from file:
     /home/sf05/q-e-qe-6.7MaX-Release/pseudo/Cr.pbe-spn-kjpaw_psl.1.0.0.UPF
     MD5 check sum: 198f1a2427a48552563eee314eba32ba
     Pseudo is Projector augmented-wave + core cor, Zval = 14.0
     Generated using &quot;atomic&quot; code by A. Dal Corso  v.6.3
     Shape of augmentation charge: PSQ
     Using radial grid of 1183 points,  6 beta functions with: 
                l(1) =   0
                l(2) =   0
                l(3) =   1
                l(4) =   1
                l(5) =   2
                l(6) =   2
     Q(r) pseudized with 0 coefficients 


     PseudoPot. # 4 for Cr read from file:
     /home/sf05/q-e-qe-6.7MaX-Release/pseudo/Cr.pbe-spn-kjpaw_psl.1.0.0.UPF
     MD5 check sum: 198f1a2427a48552563eee314eba32ba
     Pseudo is Projector augmented-wave + core cor, Zval = 14.0
     Generated using &quot;atomic&quot; code by A. Dal Corso  v.6.3
     Shape of augmentation charge: PSQ
     Using radial grid of 1183 points,  6 beta functions with: 
                l(1) =   0
                l(2) =   0
                l(3) =   1
                l(4) =   1
                l(5) =   2
                l(6) =   2
     Q(r) pseudized with 0 coefficients 


     atomic species   valence    mass     pseudopotential
        B              3.00    10.81100     B ( 1.00)
        N              5.00    14.00674     N ( 1.00)
        Cr1           14.00    51.99610     Cr( 1.00)
        Cr2           14.00    51.99610     Cr( 1.00)

     Starting magnetic structure 
     atomic species   magnetization
        B            0.000
        N            0.000
        Cr1          1.000
        Cr2          1.000

     No symmetry found



   Cartesian axes

     site n.     atom                  positions (alat units)
         1           B   tau(   1) = (  -0.1250000   0.2165064   0.8985623  )
         2           B   tau(   2) = (   0.3750000   0.6495191   0.8985623  )
         3           B   tau(   3) = (   0.2500000   0.0000000   0.8985623  )
         4           B   tau(   4) = (   0.7500000   0.0000000   0.8985623  )
         5           B   tau(   5) = (   0.1250000   0.2165064   0.8985623  )
         6           B   tau(   6) = (  -0.3750000   0.6495191   0.8985623  )
         7           N   tau(   7) = (   0.7500005   0.2886748   0.8985623  )
         8           N   tau(   8) = (   0.3750005   0.5051812   0.8985623  )
         9           N   tau(   9) = (   0.3750005   0.0721685   0.8985623  )
        10           N   tau(  10) = (   0.6250005   0.0721685   0.8985623  )
        11           N   tau(  11) = (   0.2500005   0.2886748   0.8985623  )
        12           N   tau(  12) = (   0.6250005   0.5051812   0.8985623  )
        13           N   tau(  13) = (   0.0000005   0.2886748   0.8985623  )
        14           N   tau(  14) = (   0.2500005   0.7216875   0.8985623  )
        15           N   tau(  15) = (  -0.2499995   0.7216875   0.8985623  )
        16           B   tau(  16) = (   0.0000000   0.4330127   0.8985623  )
        17           B   tau(  17) = (   0.1250000   0.6495191   0.8985623  )
        18           B   tau(  18) = (  -0.1250000   0.6495191   0.8985623  )
        19           B   tau(  19) = (   0.3750000   0.2165064   0.8985623  )
        20           B   tau(  20) = (   0.6250000   0.2165064   0.8985623  )
        21           B   tau(  21) = (   0.5000000   0.4330127   0.8985623  )
        22           N   tau(  22) = (   0.5000005   0.2886748   0.8985623  )
        23           B   tau(  23) = (  -0.2500000   0.4330127   0.8985623  )
        24           B   tau(  24) = (   0.2500000   0.4330127   0.8985623  )
        25           B   tau(  25) = (   0.5000000   0.0000000   0.8985623  )
        26           N   tau(  26) = (  -0.1249995   0.5051812   0.8985623  )
        27           N   tau(  27) = (   0.1250005   0.5051812   0.8985623  )
        28           N   tau(  28) = (   0.0000005   0.7216875   0.8985623  )
        29           N   tau(  29) = (   0.5000005   0.7216875   0.8985623  )
        30           N   tau(  30) = (   0.1250005   0.0721685   0.8985623  )
        31           N   tau(  31) = (   0.8750005   0.0721685   0.8985623  )
        32           B   tau(  32) = (   0.0000000   0.0000000   0.8985623  )
        33           Cr1 tau(  33) = (   0.3925000   0.3464102   1.2040735  )
        34           Cr2 tau(  34) = (   0.1075000   0.3464102   1.2040735  )

     number of k points=    15  Gaussian smearing, width (Ry)=  0.0000
                       cart. coord. in units 2pi/alat
        k(    1) = (   0.1666667   0.2886751   0.0000000), wk =   0.0740741
        k(    2) = (   0.1666667  -0.4811252   0.0000000), wk =   0.0740741
        k(    3) = (   0.1666667  -0.0962250   0.0000000), wk =   0.0740741
        k(    4) = (  -0.5000000  -0.8660254   0.0000000), wk =   0.0370370
        k(    5) = (  -0.1666667   0.2886751   0.0000000), wk =   0.0740741
        k(    6) = (   0.3333333   0.0000000   0.0000000), wk =   0.0740741
        k(    7) = (  -0.1666667  -0.4811252   0.0000000), wk =   0.0740741
        k(    8) = (   0.5000000  -0.0962250   0.0000000), wk =   0.0740741
        k(    9) = (  -0.3333333  -0.3849002   0.0000000), wk =   0.0740741
        k(   10) = (   0.5000000   0.0962250   0.0000000), wk =   0.0740741
        k(   11) = (  -0.3333333   0.3849002   0.0000000), wk =   0.0740741
        k(   12) = (  -0.1666667  -0.0962250   0.0000000), wk =   0.0740741
        k(   13) = (  -0.0000000  -0.1924501   0.0000000), wk =   0.0740741
        k(   14) = (   0.5000000  -0.8660254   0.0000000), wk =   0.0370370
        k(   15) = (  -1.0000000   0.0000000   0.0000000), wk =   0.0370370

     Dense  grid:  1741401 G-vectors     FFT dimensions: ( 135, 135, 240)

     Smooth grid:   474235 G-vectors     FFT dimensions: (  90,  90, 160)

     Estimated max dynamical RAM per process >     218.62 MB

     Estimated total dynamical RAM >      10.25 GB
     Generating pointlists ...
     new r_m :   0.0595 (alat units)  1.1269 (a.u.) for type    1
     new r_m :   0.0595 (alat units)  1.1269 (a.u.) for type    2
     new r_m :   0.1176 (alat units)  2.2252 (a.u.) for type    3
     new r_m :   0.1176 (alat units)  2.2252 (a.u.) for type    4

     Initial potential from superposition of free atoms

     starting charge  155.99382, renormalised to  156.00000

     negative rho (up, down):  6.716E-03 4.655E-04
     Starting wfcs are  148 randomized atomic wfcs
     Checking if some PAW data can be deallocated... 

     total cpu time spent up to now is       20.5 secs

     Self-consistent Calculation

     iteration #  1     ecut=    48.00 Ry     beta= 0.50
     Davidson diagonalization with overlap
     ethr =  1.00E-02,  avg # of iterations =  2.8

     negative rho (up, down):  4.900E-03 2.919E-03

     total cpu time spent up to now is       64.1 secs

     total energy              =   -1130.73663074 Ry
     estimated scf accuracy    <      11.36904351 Ry

     total magnetization       =    12.00 Bohr mag/cell
     absolute magnetization    =    12.12 Bohr mag/cell

     iteration #  2     ecut=    48.00 Ry     beta= 0.50
     Davidson diagonalization with overlap
     ethr =  7.29E-03,  avg # of iterations =  2.8

     negative rho (up, down):  8.882E-03 7.973E-03

     total cpu time spent up to now is      104.9 secs

     total energy              =   -1132.92062516 Ry
     estimated scf accuracy    <       3.78346818 Ry

     total magnetization       =    10.00 Bohr mag/cell
     absolute magnetization    =    10.08 Bohr mag/cell

     iteration #  3     ecut=    48.00 Ry     beta= 0.50
     Davidson diagonalization with overlap
     ethr =  2.43E-03,  avg # of iterations =  7.3

     negative rho (up, down):  4.086E-03 4.062E-03

     total cpu time spent up to now is      147.1 secs

     total energy              =   -1133.56347791 Ry
     estimated scf accuracy    <       0.84250224 Ry

     total magnetization       =    11.85 Bohr mag/cell
     absolute magnetization    =    11.91 Bohr mag/cell

     iteration #  4     ecut=    48.00 Ry     beta= 0.50
     Davidson diagonalization with overlap
     ethr =  5.40E-04,  avg # of iterations =  6.3

     negative rho (up, down):  6.849E-03 7.522E-03

     total cpu time spent up to now is      186.8 secs

     total energy              =   -1133.78720699 Ry
     estimated scf accuracy    <       0.43776367 Ry

     total magnetization       =    10.00 Bohr mag/cell
     absolute magnetization    =    10.02 Bohr mag/cell

     iteration #  5     ecut=    48.00 Ry     beta= 0.50
     Davidson diagonalization with overlap
     ethr =  2.81E-04,  avg # of iterations =  6.5

     negative rho (up, down):  4.754E-03 5.060E-03

     total cpu time spent up to now is      227.4 secs

     total energy              =   -1133.81820909 Ry
     estimated scf accuracy    <       0.02874870 Ry

     total magnetization       =    10.00 Bohr mag/cell
     absolute magnetization    =    10.02 Bohr mag/cell

     iteration #  6     ecut=    48.00 Ry     beta= 0.50
     Davidson diagonalization with overlap
     c_bands:  1 eigenvalues not converged
     c_bands:  1 eigenvalues not converged
     ethr =  1.84E-05,  avg # of iterations = 11.9

     negative rho (up, down):  3.822E-03 3.908E-03

     total cpu time spent up to now is      280.9 secs

     total energy              =   -1133.82139393 Ry
     estimated scf accuracy    <       0.03595678 Ry

     total magnetization       =    10.00 Bohr mag/cell
     absolute magnetization    =    10.02 Bohr mag/cell

     iteration #  7     ecut=    48.00 Ry     beta= 0.50
     Davidson diagonalization with overlap
     ethr =  1.84E-05,  avg # of iterations =  6.2

     negative rho (up, down):  3.490E-03 3.889E-03

     total cpu time spent up to now is      322.2 secs

     total energy              =   -1133.82779317 Ry
     estimated scf accuracy    <       0.00215176 Ry

     total magnetization       =    10.00 Bohr mag/cell
     absolute magnetization    =    10.02 Bohr mag/cell

     iteration #  8     ecut=    48.00 Ry     beta= 0.50
     Davidson diagonalization with overlap
     ethr =  1.38E-06,  avg # of iterations =  8.7

     negative rho (up, down):  3.216E-03 3.740E-03

     total cpu time spent up to now is      371.0 secs

     total energy              =   -1133.82848041 Ry
     estimated scf accuracy    <       0.00074746 Ry

     total magnetization       =    10.00 Bohr mag/cell
     absolute magnetization    =    10.01 Bohr mag/cell

     iteration #  9     ecut=    48.00 Ry     beta= 0.50
     Davidson diagonalization with overlap
     ethr =  4.79E-07,  avg # of iterations =  2.5

     negative rho (up, down):  3.168E-03 3.744E-03

     total cpu time spent up to now is      404.5 secs

     total energy              =   -1133.82865694 Ry
     estimated scf accuracy    <       0.00008933 Ry

     total magnetization       =    10.00 Bohr mag/cell
     absolute magnetization    =    10.01 Bohr mag/cell

     iteration # 10     ecut=    48.00 Ry     beta= 0.50
     Davidson diagonalization with overlap
     ethr =  5.73E-08,  avg # of iterations =  4.1

     negative rho (up, down):  3.148E-03 3.756E-03

     total cpu time spent up to now is      447.5 secs

     total energy              =   -1133.82873357 Ry
     estimated scf accuracy    <       0.00002494 Ry

     total magnetization       =    10.00 Bohr mag/cell
     absolute magnetization    =    10.01 Bohr mag/cell

     iteration # 11     ecut=    48.00 Ry     beta= 0.50
     Davidson diagonalization with overlap
     ethr =  1.60E-08,  avg # of iterations =  4.2

     negative rho (up, down):  3.143E-03 3.774E-03

     total cpu time spent up to now is      484.6 secs

     total energy              =   -1133.82876268 Ry
     estimated scf accuracy    <       0.00000693 Ry

     total magnetization       =    10.00 Bohr mag/cell
     absolute magnetization    =    10.01 Bohr mag/cell

     iteration # 12     ecut=    48.00 Ry     beta= 0.50
     Davidson diagonalization with overlap
     ethr =  4.44E-09,  avg # of iterations =  4.6

     negative rho (up, down):  3.140E-03 3.793E-03

     total cpu time spent up to now is      522.0 secs

     total energy              =   -1133.82877364 Ry
     estimated scf accuracy    <       0.00000359 Ry

     total magnetization       =    10.00 Bohr mag/cell
     absolute magnetization    =    10.01 Bohr mag/cell

     iteration # 13     ecut=    48.00 Ry     beta= 0.50
     Davidson diagonalization with overlap
     ethr =  2.30E-09,  avg # of iterations =  4.7

     negative rho (up, down):  3.136E-03 3.797E-03

     total cpu time spent up to now is      559.0 secs

     total energy              =   -1133.82877877 Ry
     estimated scf accuracy    <       0.00000027 Ry

     total magnetization       =    10.00 Bohr mag/cell
     absolute magnetization    =    10.01 Bohr mag/cell

     iteration # 14     ecut=    48.00 Ry     beta= 0.50
     Davidson diagonalization with overlap
     ethr =  1.75E-10,  avg # of iterations =  5.4

     negative rho (up, down):  3.134E-03 3.798E-03
 
     Magnetic moment per site:
     atom:    1    charge:    0.8808    magn:    0.0008    constr:    0.0000
     atom:    2    charge:    0.8802    magn:    0.0006    constr:    0.0000
     atom:    3    charge:    0.8800    magn:    0.0001    constr:    0.0000
     atom:    4    charge:    0.8804    magn:    0.0001    constr:    0.0000
     atom:    5    charge:    0.8801    magn:    0.0002    constr:    0.0000
     atom:    6    charge:    0.8804    magn:    0.0001    constr:    0.0000
     atom:    7    charge:    2.8610    magn:    0.0004    constr:    0.0000
     atom:    8    charge:    2.8607    magn:    0.0043    constr:    0.0000
     atom:    9    charge:    2.8608    magn:    0.0016    constr:    0.0000
     atom:   10    charge:    2.8609    magn:    0.0004    constr:    0.0000
     atom:   11    charge:    2.8605    magn:    0.0071    constr:    0.0000
     atom:   12    charge:    2.8610    magn:    0.0009    constr:    0.0000
     atom:   13    charge:    2.8596    magn:    0.0052    constr:    0.0000
     atom:   14    charge:    2.8598    magn:    0.0003    constr:    0.0000
     atom:   15    charge:    2.8599    magn:    0.0000    constr:    0.0000
     atom:   16    charge:    0.8805    magn:   -0.0000    constr:    0.0000
     atom:   17    charge:    0.8799    magn:    0.0006    constr:    0.0000
     atom:   18    charge:    0.8800    magn:    0.0001    constr:    0.0000
     atom:   19    charge:    0.8796    magn:    0.0002    constr:    0.0000
     atom:   20    charge:    0.8802    magn:    0.0008    constr:    0.0000
     atom:   21    charge:    0.8802    magn:   -0.0000    constr:    0.0000
     atom:   22    charge:    2.8609    magn:    0.0052    constr:    0.0000
     atom:   23    charge:    0.8804    magn:    0.0001    constr:    0.0000
     atom:   24    charge:    0.8789    magn:   -0.0002    constr:    0.0000
     atom:   25    charge:    0.8799    magn:    0.0001    constr:    0.0000
     atom:   26    charge:    2.8599    magn:    0.0009    constr:    0.0000
     atom:   27    charge:    2.8595    magn:    0.0043    constr:    0.0000
     atom:   28    charge:    2.8598    magn:    0.0002    constr:    0.0000
     atom:   29    charge:    2.8596    magn:    0.0002    constr:    0.0000
     atom:   30    charge:    2.8594    magn:    0.0016    constr:    0.0000
     atom:   31    charge:    2.8596    magn:    0.0004    constr:    0.0000
     atom:   32    charge:    0.8802    magn:    0.0001    constr:    0.0000
     atom:   33    charge:   12.5375    magn:    4.2521    constr:    0.0000
     atom:   34    charge:   12.5373    magn:    4.2520    constr:    0.0000

     total cpu time spent up to now is      598.2 secs

     End of self-consistent calculation

 ------ SPIN UP ------------


          k = 0.1667 0.2887 0.0000 ( 59267 PWs)   bands (ev):

   -72.8780 -72.8706 -44.4249 -44.3501 -44.2819 -44.2745 -44.2513 -44.2438
   -21.2516 -20.6657 -20.6598 -20.1137 -20.0962 -19.5925 -19.5866 -19.1038
   -18.7027 -18.6955 -18.4662 -18.4503 -18.1992 -18.0899 -18.0812 -17.8536
   -12.4891 -12.2144 -12.2028 -11.8259 -11.8218 -11.6631 -11.1966 -11.1935
   -10.3966 -10.3720 -10.1224 -10.1189  -9.5935  -9.5925  -8.8442  -8.8297
    -8.8246  -8.7717  -8.7650  -8.6007  -8.2014  -8.0539  -8.0212  -7.8352
    -7.8302  -7.4431  -7.4411  -7.2914  -7.2566  -7.2130  -7.2105  -6.9692
    -6.9551  -6.5679  -6.5434  -6.1583  -6.1571  -5.8748  -5.4228  -5.2962
    -5.2818  -5.2045  -4.9225  -4.8977  -4.5096  -4.3605  -4.3432  -3.9829
    -2.8539  -2.0304  -1.9544  -1.8290  -1.6302  -1.5948  -1.4854  -1.4700
    -1.4176  -1.3757  -1.3176  -0.7271   0.6736   0.9503   1.0596   1.1605
     1.2733   1.4637   1.4961   1.5806   1.5990   1.7762

          k = 0.1667-0.4811 0.0000 ( 59291 PWs)   bands (ev):

   -72.8780 -72.8706 -44.4249 -44.3501 -44.2818 -44.2746 -44.2513 -44.2438
   -21.1216 -20.9159 -20.7276 -20.1655 -19.8087 -19.4710 -19.3209 -19.1796
   -19.0184 -18.7836 -18.6464 -18.5474 -18.1540 -18.0921 -17.9265 -17.7279
   -12.3534 -12.1184 -12.0490 -11.9107 -11.6851 -11.6629 -11.5570 -10.9461
   -10.8950 -10.6283 -10.5271  -9.8649  -9.6977  -9.3404  -9.1154  -8.6720
    -8.6275  -8.5577  -8.3931  -8.3700  -8.1659  -8.1273  -8.0678  -8.0542
    -7.6934  -7.6277  -7.4988  -7.4781  -7.3603  -7.1752  -7.0719  -6.8638
    -6.6264  -6.3926  -6.1801  -6.1621  -5.9767  -5.9335  -5.7881  -5.7482
    -5.4556  -5.4025  -5.2144  -5.0440  -4.4484  -4.3499  -4.0931  -3.7704
    -2.8508  -2.0304  -1.9544  -1.8254  -1.6292  -1.5945  -1.4883  -1.4707
    -1.4178  -1.3754  -1.3182  -0.7315   0.5835   0.9392   1.0790   1.1172
     1.2138   1.2357   1.3598   1.8380   1.9076   2.1225

          k = 0.1667-0.0962 0.0000 ( 59226 PWs)   bands (ev):

   -72.8780 -72.8705 -44.4249 -44.3501 -44.2819 -44.2745 -44.2513 -44.2438
   -21.3179 -20.5409 -20.3499 -20.3430 -19.9927 -19.9856 -19.8095 -18.7330
   -18.7281 -18.3826 -18.3671 -18.3624 -18.2770 -18.2612 -18.0810 -18.0751
   -12.5148 -12.5044 -12.4125 -11.5862 -11.5809 -11.4354 -11.4204 -10.9306
   -10.9282  -9.9330  -9.9314  -9.6805  -9.3824  -9.3741  -9.2344  -9.2327
    -9.0463  -9.0446  -8.9273  -8.3273  -8.3265  -7.9075  -7.9021  -7.8854
    -7.8494  -7.7746  -7.6121  -7.5862  -7.1376  -7.0971  -6.9639  -6.8922
    -6.8899  -6.8542  -6.5350  -6.5331  -6.2618  -5.3508  -5.3241  -5.1476
    -5.0696  -4.8145  -4.7945  -4.7611  -4.6237  -4.6029  -4.3562  -4.3351
    -2.8572  -2.0305  -1.9543  -1.8325  -1.6322  -1.5952  -1.4826  -1.4694
    -1.4173  -1.3760  -1.3170  -0.7227   0.7828   0.9239   1.0092   1.1801
     1.2678   1.3249   1.5707   1.5809   1.6963   1.9137

          k =-0.5000-0.8660 0.0000 ( 59292 PWs)   bands (ev):

   -72.8780 -72.8706 -44.4249 -44.3501 -44.2819 -44.2746 -44.2513 -44.2438
   -21.0557 -21.0501 -20.4740 -20.4682 -19.4344 -19.4278 -19.4149 -19.4109
   -18.9974 -18.9920 -18.3325 -18.3300 -18.3206 -18.3099 -17.7972 -17.7929
   -12.0771 -12.0735 -12.0684 -12.0603 -11.8828 -11.8777 -11.3340 -11.3315
   -10.2389 -10.2372 -10.1403 -10.1357 -10.1339 -10.1304  -8.5909  -8.5546
    -8.5524  -8.5504  -8.5491  -8.5428  -7.8687  -7.8669  -7.8654  -7.8622
    -7.8265  -7.8244  -7.7835  -7.7583  -7.4958  -7.4890  -6.6150  -6.6131
    -6.3621  -6.3261  -6.3220  -6.2959  -6.1953  -6.1905  -5.7097  -5.7055
    -5.5512  -5.5448  -4.7306  -4.7156  -4.7119  -4.6916  -3.8899  -3.8723
    -2.8384  -2.0287  -1.9547  -1.8278  -1.6297  -1.5958  -1.4890  -1.4720
    -1.4222  -1.3797  -1.3168  -0.8509   0.7668   1.0557   1.0921   1.1843
     1.4192   1.5359   1.5866   1.6130   1.6424   1.7655

          k =-0.1667 0.2887 0.0000 ( 59267 PWs)   bands (ev):

   -72.8780 -72.8706 -44.4249 -44.3501 -44.2819 -44.2745 -44.2513 -44.2438
   -21.2516 -20.6657 -20.6598 -20.1137 -20.0962 -19.5925 -19.5865 -19.1038
   -18.7027 -18.6954 -18.4662 -18.4503 -18.1992 -18.0899 -18.0812 -17.8536
   -12.4891 -12.2144 -12.2028 -11.8259 -11.8218 -11.6631 -11.1966 -11.1934
   -10.3966 -10.3720 -10.1224 -10.1189  -9.5935  -9.5925  -8.8442  -8.8297
    -8.8246  -8.7717  -8.7650  -8.6006  -8.2014  -8.0539  -8.0212  -7.8352
    -7.8301  -7.4431  -7.4411  -7.2914  -7.2566  -7.2130  -7.2105  -6.9693
    -6.9552  -6.5679  -6.5434  -6.1584  -6.1570  -5.8748  -5.4229  -5.2962
    -5.2819  -5.2044  -4.9224  -4.8977  -4.5096  -4.3605  -4.3432  -3.9829
    -2.8539  -2.0304  -1.9544  -1.8290  -1.6302  -1.5948  -1.4854  -1.4700
    -1.4176  -1.3757  -1.3176  -0.7271   0.6736   0.9503   1.0596   1.1606
     1.2733   1.4637   1.4961   1.5806   1.5990   1.7762

          k = 0.3333 0.0000 0.0000 ( 59267 PWs)   bands (ev):

   -72.8780 -72.8705 -44.4249 -44.3501 -44.2819 -44.2745 -44.2513 -44.2438
   -21.2511 -20.6923 -20.6330 -20.1136 -20.0946 -19.6195 -19.5615 -19.1061
   -18.7199 -18.6727 -18.4683 -18.4503 -18.1944 -18.1135 -18.0647 -17.8527
   -12.4880 -12.2160 -12.2017 -11.8359 -11.8146 -11.6611 -11.2152 -11.1747
   -10.3957 -10.3717 -10.1365 -10.1059  -9.6001  -9.5844  -8.8464  -8.8316
    -8.8177  -8.7940  -8.7441  -8.6014  -8.2036  -8.1069  -7.9676  -7.8335
    -7.8293  -7.4496  -7.4346  -7.2964  -7.2460  -7.2229  -7.2000  -6.9705
    -6.9557  -6.6230  -6.4956  -6.1612  -6.1533  -5.8819  -5.4228  -5.3133
    -5.2524  -5.2048  -4.9328  -4.8903  -4.5004  -4.3911  -4.3259  -3.9816
    -2.8460  -2.0291  -1.9546  -1.8306  -1.6316  -1.5957  -1.4857  -1.4705
    -1.4197  -1.3787  -1.3166  -0.8102   0.8018   1.0456   1.1579   1.2408
     1.2954   1.4462   1.5098   1.5587   1.5889   1.7644

          k =-0.1667-0.4811 0.0000 ( 59291 PWs)   bands (ev):

   -72.8780 -72.8706 -44.4249 -44.3501 -44.2818 -44.2746 -44.2513 -44.2438
   -21.1216 -20.9159 -20.7276 -20.1655 -19.8087 -19.4710 -19.3209 -19.1796
   -19.0184 -18.7836 -18.6464 -18.5474 -18.1540 -18.0921 -17.9266 -17.7279
   -12.3534 -12.1184 -12.0490 -11.9107 -11.6851 -11.6629 -11.5570 -10.9461
   -10.8951 -10.6284 -10.5271  -9.8649  -9.6977  -9.3404  -9.1154  -8.6720
    -8.6275  -8.5577  -8.3931  -8.3700  -8.1658  -8.1273  -8.0678  -8.0543
    -7.6934  -7.6278  -7.4988  -7.4781  -7.3603  -7.1752  -7.0719  -6.8638
    -6.6264  -6.3926  -6.1801  -6.1621  -5.9767  -5.9335  -5.7881  -5.7481
    -5.4556  -5.4025  -5.2144  -5.0440  -4.4484  -4.3500  -4.0931  -3.7704
    -2.8508  -2.0304  -1.9544  -1.8254  -1.6292  -1.5945  -1.4883  -1.4707
    -1.4178  -1.3754  -1.3182  -0.7315   0.5835   0.9392   1.0790   1.1172
     1.2138   1.2357   1.3598   1.8380   1.9076   2.1223

          k = 0.5000-0.0962 0.0000 ( 59291 PWs)   bands (ev):

   -72.8780 -72.8706 -44.4249 -44.3501 -44.2819 -44.2745 -44.2513 -44.2438
   -21.1184 -20.9248 -20.7219 -20.1636 -19.8088 -19.4727 -19.3283 -19.1736
   -19.0197 -18.7840 -18.6353 -18.5545 -18.1412 -18.1102 -17.9228 -17.7276
   -12.3513 -12.1193 -12.0468 -11.9156 -11.6990 -11.6469 -11.5592 -10.9472
   -10.8920 -10.6260 -10.5300  -9.8627  -9.6982  -9.3414  -9.1148  -8.6606
    -8.6284  -8.5553  -8.4033  -8.3977  -8.1636  -8.1063  -8.0817  -8.0413
    -7.6889  -7.6285  -7.4976  -7.4797  -7.3537  -7.1765  -7.0729  -6.8636
    -6.6269  -6.4002  -6.2004  -6.1615  -5.9601  -5.9329  -5.7872  -5.7508
    -5.4569  -5.4017  -5.1893  -5.0600  -4.4237  -4.3822  -4.0884  -3.7703
    -2.8385  -2.0287  -1.9547  -1.8278  -1.6302  -1.5958  -1.4890  -1.4720
    -1.4221  -1.3798  -1.3168  -0.8506   0.7511   1.0368   1.1164   1.1812
     1.2824   1.3354   1.5227   1.7580   1.8407   1.8787

          k =-0.3333-0.3849 0.0000 ( 59291 PWs)   bands (ev):

   -72.8780 -72.8706 -44.4249 -44.3501 -44.2818 -44.2746 -44.2513 -44.2438
   -21.1195 -20.9217 -20.7240 -20.1633 -19.8109 -19.4708 -19.3226 -19.1772
   -19.0232 -18.7819 -18.6369 -18.5537 -18.1437 -18.1070 -17.9230 -17.7278
   -12.3527 -12.1161 -12.0499 -11.9135 -11.6868 -11.6609 -11.5582 -10.9468
   -10.8923 -10.6254 -10.5305  -9.8630  -9.6983  -9.3414  -9.1158  -8.6643
    -8.6267  -8.5574  -8.3952  -8.3907  -8.1653  -8.1142  -8.0676  -8.0570
    -7.6895  -7.6265  -7.5052  -7.4726  -7.3524  -7.1766  -7.0736  -6.8715
    -6.6248  -6.3930  -6.1827  -6.1642  -5.9721  -5.9315  -5.7874  -5.7620
    -5.4567  -5.3954  -5.1900  -5.0607  -4.4272  -4.3786  -4.0879  -3.7705
    -2.8426  -2.0294  -1.9546  -1.8270  -1.6295  -1.5954  -1.4886  -1.4716
    -1.4209  -1.3783  -1.3173  -0.8142   0.6931   1.0393   1.1090   1.1532
     1.2318   1.3512   1.3784   1.8184   1.8923   1.9212

          k = 0.5000 0.0962 0.0000 ( 59291 PWs)   bands (ev):

   -72.8780 -72.8706 -44.4249 -44.3501 -44.2819 -44.2745 -44.2513 -44.2438
   -21.1184 -20.9248 -20.7219 -20.1636 -19.8088 -19.4727 -19.3283 -19.1736
   -19.0197 -18.7840 -18.6353 -18.5545 -18.1412 -18.1102 -17.9228 -17.7276
   -12.3513 -12.1193 -12.0468 -11.9156 -11.6990 -11.6469 -11.5592 -10.9472
   -10.8920 -10.6260 -10.5301  -9.8627  -9.6983  -9.3414  -9.1147  -8.6606
    -8.6284  -8.5553  -8.4033  -8.3977  -8.1636  -8.1063  -8.0817  -8.0412
    -7.6890  -7.6284  -7.4977  -7.4797  -7.3537  -7.1765  -7.0729  -6.8636
    -6.6268  -6.4002  -6.2004  -6.1614  -5.9601  -5.9329  -5.7873  -5.7508
    -5.4569  -5.4017  -5.1893  -5.0600  -4.4237  -4.3822  -4.0884  -3.7703
    -2.8385  -2.0287  -1.9547  -1.8278  -1.6302  -1.5958  -1.4890  -1.4719
    -1.4221  -1.3798  -1.3168  -0.8506   0.7511   1.0369   1.1164   1.1812
     1.2824   1.3353   1.5227   1.7580   1.8407   1.8787

          k =-0.3333 0.3849 0.0000 ( 59291 PWs)   bands (ev):

   -72.8780 -72.8706 -44.4249 -44.3501 -44.2818 -44.2746 -44.2513 -44.2438
   -21.1195 -20.9217 -20.7240 -20.1633 -19.8109 -19.4709 -19.3226 -19.1772
   -19.0232 -18.7819 -18.6368 -18.5537 -18.1437 -18.1070 -17.9230 -17.7278
   -12.3527 -12.1161 -12.0499 -11.9135 -11.6869 -11.6609 -11.5582 -10.9468
   -10.8923 -10.6254 -10.5305  -9.8630  -9.6982  -9.3413  -9.1158  -8.6643
    -8.6267  -8.5573  -8.3953  -8.3907  -8.1653  -8.1142  -8.0676  -8.0570
    -7.6894  -7.6265  -7.5052  -7.4726  -7.3524  -7.1765  -7.0736  -6.8715
    -6.6249  -6.3930  -6.1827  -6.1643  -5.9721  -5.9316  -5.7873  -5.7620
    -5.4566  -5.3953  -5.1900  -5.0607  -4.4272  -4.3786  -4.0879  -3.7705
    -2.8426  -2.0294  -1.9546  -1.8270  -1.6295  -1.5954  -1.4886  -1.4716
    -1.4209  -1.3783  -1.3173  -0.8142   0.6931   1.0393   1.1090   1.1532
     1.2318   1.3512   1.3783   1.8184   1.8923   1.9212

          k =-0.1667-0.0962 0.0000 ( 59226 PWs)   bands (ev):

   -72.8780 -72.8705 -44.4249 -44.3501 -44.2819 -44.2745 -44.2513 -44.2438
   -21.3179 -20.5409 -20.3499 -20.3430 -19.9927 -19.9856 -19.8095 -18.7330
   -18.7281 -18.3826 -18.3672 -18.3624 -18.2770 -18.2612 -18.0810 -18.0750
   -12.5148 -12.5044 -12.4124 -11.5862 -11.5809 -11.4355 -11.4204 -10.9305
   -10.9282  -9.9331  -9.9314  -9.6804  -9.3823  -9.3741  -9.2344  -9.2327
    -9.0462  -9.0446  -8.9273  -8.3274  -8.3265  -7.9075  -7.9021  -7.8854
    -7.8494  -7.7747  -7.6121  -7.5862  -7.1376  -7.0971  -6.9640  -6.8922
    -6.8898  -6.8542  -6.5350  -6.5331  -6.2618  -5.3508  -5.3241  -5.1475
    -5.0697  -4.8145  -4.7944  -4.7612  -4.6237  -4.6029  -4.3562  -4.3351
    -2.8572  -2.0305  -1.9543  -1.8325  -1.6322  -1.5952  -1.4826  -1.4694
    -1.4173  -1.3760  -1.3170  -0.7227   0.7828   0.9239   1.0092   1.1801
     1.2678   1.3249   1.5707   1.5809   1.6963   1.9137

          k =-0.0000-0.1925 0.0000 ( 59226 PWs)   bands (ev):

   -72.8780 -72.8705 -44.4249 -44.3501 -44.2819 -44.2745 -44.2513 -44.2438
   -21.3181 -20.5350 -20.3630 -20.3399 -19.9937 -19.9760 -19.8138 -18.7382
   -18.7183 -18.4080 -18.3699 -18.3554 -18.2578 -18.2576 -18.0899 -18.0723
   -12.5167 -12.5034 -12.4116 -11.5910 -11.5770 -11.4344 -11.4190 -10.9330
   -10.9275  -9.9362  -9.9286  -9.6805  -9.3824  -9.3720  -9.2359  -9.2323
    -9.0459  -9.0455  -8.9280  -8.3295  -8.3235  -7.9076  -7.9014  -7.8657
    -7.8471  -7.7767  -7.6430  -7.5917  -7.1186  -7.0870  -6.9623  -6.8963
    -6.8877  -6.8676  -6.5382  -6.5289  -6.2625  -5.3500  -5.3141  -5.1478
    -5.0693  -4.8649  -4.7902  -4.7523  -4.5974  -4.5919  -4.3666  -4.3353
    -2.8611  -2.0311  -1.9542  -1.8317  -1.6315  -1.5947  -1.4826  -1.4693
    -1.4163  -1.3745  -1.3174  -0.6743   0.6931   0.8507   1.0059   1.1537
     1.2190   1.3798   1.5534   1.6043   1.6898   1.9630

          k = 0.5000-0.8660 0.0000 ( 59292 PWs)   bands (ev):

   -72.8780 -72.8706 -44.4249 -44.3501 -44.2819 -44.2746 -44.2513 -44.2438
   -21.0557 -21.0501 -20.4740 -20.4682 -19.4344 -19.4278 -19.4149 -19.4109
   -18.9975 -18.9919 -18.3326 -18.3299 -18.3206 -18.3099 -17.7972 -17.7929
   -12.0771 -12.0735 -12.0685 -12.0602 -11.8828 -11.8776 -11.3340 -11.3314
   -10.2389 -10.2372 -10.1403 -10.1357 -10.1339 -10.1304  -8.5909  -8.5546
    -8.5525  -8.5504  -8.5490  -8.5427  -7.8687  -7.8669  -7.8655  -7.8622
    -7.8266  -7.8245  -7.7835  -7.7583  -7.4959  -7.4891  -6.6149  -6.6131
    -6.3621  -6.3261  -6.3220  -6.2959  -6.1953  -6.1904  -5.7098  -5.7055
    -5.5513  -5.5449  -4.7307  -4.7155  -4.7119  -4.6916  -3.8899  -3.8723
    -2.8384  -2.0287  -1.9547  -1.8278  -1.6297  -1.5958  -1.4890  -1.4720
    -1.4222  -1.3797  -1.3168  -0.8509   0.7668   1.0558   1.0922   1.1844
     1.4191   1.5358   1.5865   1.6130   1.6424   1.7652

          k =-1.0000 0.0000 0.0000 ( 59292 PWs)   bands (ev):

   -72.8780 -72.8706 -44.4250 -44.3501 -44.2819 -44.2746 -44.2513 -44.2437
   -21.0810 -21.0215 -20.4846 -20.4628 -19.4464 -19.4133 -19.4124 -19.4088
   -19.0199 -18.9724 -18.3813 -18.3339 -18.2961 -18.2818 -17.8052 -17.7871
   -12.1169 -12.0775 -12.0473 -12.0340 -11.8889 -11.8718 -11.3555 -11.3114
   -10.2545 -10.2388 -10.1379 -10.1363 -10.1277 -10.1238  -8.6361  -8.5831
    -8.5612  -8.5297  -8.5198  -8.4934  -7.8854  -7.8780  -7.8643  -7.8557
    -7.8213  -7.8158  -7.7985  -7.7581  -7.5199  -7.4677  -6.6192  -6.6058
    -6.3727  -6.3167  -6.3050  -6.2894  -6.2143  -6.1745  -5.7424  -5.6819
    -5.5721  -5.5244  -4.8242  -4.7161  -4.6728  -4.6396  -3.8976  -3.8670
    -2.8548  -2.0308  -1.9544  -1.8247  -1.6291  -1.5941  -1.4883  -1.4701
    -1.4160  -1.3740  -1.3186  -0.6838   0.5409   0.8294   1.0972   1.1175
     1.1468   1.4648   1.5522   1.6221   1.6347   1.9364

 ------ SPIN DOWN ----------


          k = 0.1667 0.2887 0.0000 ( 59267 PWs)   bands (ev):

   -68.6779 -68.6693 -40.3532 -40.2644 -40.1057 -40.0969 -40.0432 -40.0340
   -21.2477 -20.6626 -20.6554 -20.1094 -20.0928 -19.5897 -19.5818 -19.0999
   -18.6992 -18.6903 -18.4620 -18.4466 -18.1945 -18.0864 -18.0774 -17.8495
   -12.4866 -12.2116 -12.2007 -11.8237 -11.8195 -11.6609 -11.1944 -11.1905
   -10.3938 -10.3695 -10.1201 -10.1157  -9.5912  -9.5899  -8.8326  -8.8219
    -8.8190  -8.7698  -8.7622  -8.5984  -8.1991  -8.0305  -8.0115  -7.8327
    -7.8279  -7.4400  -7.4379  -7.2723  -7.2439  -7.2111  -7.2076  -6.9666
    -6.9530  -6.5472  -6.5352  -6.1558  -6.1544  -5.8594  -5.4198  -5.2777
    -5.2668  -5.2018  -4.9077  -4.8859  -4.4938  -4.3461  -4.3334  -3.9695
    -1.4349   0.3849   0.8833   1.0655   1.1062   1.1886   1.2640   1.3258
     1.4150   1.4952   1.5307   1.5715   1.6339   1.7267   1.8780   1.9994
     2.0435   2.1225   2.1502   2.1932   2.2572   2.3296

          k = 0.1667-0.4811 0.0000 ( 59291 PWs)   bands (ev):

   -68.6779 -68.6693 -40.3532 -40.2644 -40.1057 -40.0969 -40.0432 -40.0340
   -21.1174 -20.9128 -20.7237 -20.1615 -19.8050 -19.4672 -19.3172 -19.1754
   -19.0146 -18.7798 -18.6410 -18.5443 -18.1484 -18.0899 -17.9223 -17.7237
   -12.3508 -12.1159 -12.0468 -11.9084 -11.6832 -11.6603 -11.5547 -10.9435
   -10.8922 -10.6256 -10.5247  -9.8619  -9.6953  -9.3375  -9.1130  -8.6493
    -8.6250  -8.5547  -8.3909  -8.3585  -8.1634  -8.1104  -8.0656  -8.0517
    -7.6907  -7.6253  -7.4964  -7.4758  -7.3430  -7.1722  -7.0696  -6.8485
    -6.6233  -6.3777  -6.1649  -6.1595  -5.9615  -5.9304  -5.7854  -5.7337
    -5.4531  -5.3877  -5.1930  -5.0351  -4.4291  -4.3433  -4.0795  -3.7574
    -1.4254   0.3732   0.8559   1.0216   1.0689   1.1292   1.1999   1.2627
     1.3182   1.4613   1.5362   1.7383   1.7950   1.8307   1.8948   2.0805
     2.1240   2.1438   2.1729   2.2151   2.2817   2.3186

          k = 0.1667-0.0962 0.0000 ( 59226 PWs)   bands (ev):

   -68.6779 -68.6693 -40.3532 -40.2644 -40.1057 -40.0969 -40.0432 -40.0340
   -21.3142 -20.5366 -20.3463 -20.3396 -19.9882 -19.9820 -19.8062 -18.7284
   -18.7240 -18.3781 -18.3636 -18.3581 -18.2726 -18.2571 -18.0771 -18.0718
   -12.5121 -12.5022 -12.4101 -11.5836 -11.5787 -11.4326 -11.4183 -10.9279
   -10.9258  -9.9304  -9.9291  -9.6775  -9.3797  -9.3717  -9.2314  -9.2299
    -9.0440  -9.0421  -8.9092  -8.3242  -8.3235  -7.9046  -7.8998  -7.8642
    -7.8455  -7.7724  -7.5961  -7.5758  -7.1137  -7.0860  -6.9613  -6.8897
    -6.8877  -6.8440  -6.5323  -6.5308  -6.2593  -5.3298  -5.3113  -5.1448
    -5.0669  -4.7988  -4.7798  -4.7467  -4.6099  -4.5909  -4.3406  -4.3258
    -1.4444   0.3989   0.9042   1.0276   1.0840   1.1537   1.1991   1.3437
     1.4373   1.5104   1.5893   1.6472   1.7811   1.8280   1.8989   1.9264
     2.0294   2.0758   2.1313   2.1545   2.2158   2.3367

          k =-0.5000-0.8660 0.0000 ( 59292 PWs)   bands (ev):

   -68.6779 -68.6693 -40.3532 -40.2644 -40.1057 -40.0970 -40.0432 -40.0340
   -21.0528 -21.0452 -20.4703 -20.4647 -19.4296 -19.4237 -19.4110 -19.4077
   -18.9950 -18.9869 -18.3276 -18.3260 -18.3194 -18.3036 -17.7929 -17.7891
   -12.0738 -12.0713 -12.0671 -12.0572 -11.8805 -11.8757 -11.3319 -11.3284
   -10.2363 -10.2349 -10.1372 -10.1329 -10.1313 -10.1279  -8.5637  -8.5510
    -8.5496  -8.5475  -8.5421  -8.5388  -7.8662  -7.8644  -7.8628  -7.8600
    -7.8227  -7.8213  -7.7670  -7.7473  -7.4942  -7.4861  -6.6121  -6.6107
    -6.3355  -6.3121  -6.3057  -6.2861  -6.1931  -6.1870  -5.6968  -5.6919
    -5.5494  -5.5414  -4.7126  -4.7036  -4.6897  -4.6872  -3.8740  -3.8624
    -1.4014   0.1354   0.8756   1.0225   1.1210   1.1697   1.2715   1.3982
     1.4649   1.5408   1.5852   1.7083   1.7416   1.8912   1.9247   1.9367
     1.9868   2.0625   2.1840   2.2365   2.2938   2.3552

          k =-0.1667 0.2887 0.0000 ( 59267 PWs)   bands (ev):

   -68.6779 -68.6693 -40.3532 -40.2644 -40.1057 -40.0969 -40.0432 -40.0340
   -21.2477 -20.6627 -20.6553 -20.1094 -20.0928 -19.5897 -19.5818 -19.0999
   -18.6992 -18.6902 -18.4620 -18.4466 -18.1945 -18.0864 -18.0774 -17.8495
   -12.4866 -12.2116 -12.2007 -11.8237 -11.8195 -11.6609 -11.1945 -11.1904
   -10.3938 -10.3695 -10.1201 -10.1157  -9.5913  -9.5898  -8.8325  -8.8218
    -8.8190  -8.7698  -8.7622  -8.5983  -8.1992  -8.0305  -8.0115  -7.8326
    -7.8278  -7.4400  -7.4379  -7.2723  -7.2439  -7.2111  -7.2076  -6.9667
    -6.9531  -6.5472  -6.5351  -6.1558  -6.1544  -5.8594  -5.4199  -5.2777
    -5.2668  -5.2017  -4.9077  -4.8859  -4.4939  -4.3461  -4.3334  -3.9695
    -1.4349   0.3849   0.8833   1.0655   1.1063   1.1886   1.2640   1.3258
     1.4150   1.4952   1.5307   1.5714   1.6339   1.7267   1.8780   1.9994
     2.0435   2.1225   2.1502   2.1931   2.2572   2.3296

          k = 0.3333 0.0000 0.0000 ( 59267 PWs)   bands (ev):

   -68.6779 -68.6693 -40.3532 -40.2644 -40.1057 -40.0969 -40.0432 -40.0340
   -21.2473 -20.6867 -20.6311 -20.1094 -20.0914 -19.6138 -19.5596 -19.1019
   -18.7138 -18.6709 -18.4637 -18.4467 -18.1906 -18.1069 -18.0628 -17.8488
   -12.4857 -12.2125 -12.2000 -11.8329 -11.8129 -11.6591 -11.2118 -11.1730
   -10.3929 -10.3693 -10.1324 -10.1044  -9.5973  -9.5825  -8.8344  -8.8253
    -8.8114  -8.7904  -8.7429  -8.5990  -8.2010  -8.0782  -7.9635  -7.8311
    -7.8271  -7.4455  -7.4324  -7.2751  -7.2368  -7.2198  -7.1984  -6.9675
    -6.9537  -6.5967  -6.4911  -6.1584  -6.1510  -5.8646  -5.4198  -5.2935
    -5.2418  -5.2021  -4.9160  -4.8800  -4.4867  -4.3724  -4.3170  -3.9686
    -1.4197   0.2162   0.9155   1.0434   1.1186   1.2031   1.2276   1.4335
     1.4498   1.4936   1.5507   1.6269   1.7925   1.8683   1.9051   1.9197
     2.0279   2.0771   2.1523   2.1858   2.2770   2.3640

          k =-0.1667-0.4811 0.0000 ( 59291 PWs)   bands (ev):

   -68.6779 -68.6693 -40.3532 -40.2644 -40.1057 -40.0969 -40.0432 -40.0340
   -21.1174 -20.9128 -20.7237 -20.1615 -19.8050 -19.4672 -19.3172 -19.1754
   -19.0146 -18.7798 -18.6410 -18.5443 -18.1484 -18.0898 -17.9223 -17.7237
   -12.3508 -12.1159 -12.0468 -11.9084 -11.6832 -11.6603 -11.5547 -10.9435
   -10.8922 -10.6256 -10.5247  -9.8619  -9.6953  -9.3376  -9.1130  -8.6493
    -8.6250  -8.5547  -8.3909  -8.3585  -8.1634  -8.1104  -8.0656  -8.0518
    -7.6907  -7.6254  -7.4963  -7.4758  -7.3430  -7.1722  -7.0696  -6.8485
    -6.6233  -6.3777  -6.1649  -6.1595  -5.9615  -5.9303  -5.7854  -5.7337
    -5.4531  -5.3877  -5.1930  -5.0351  -4.4291  -4.3433  -4.0795  -3.7574
    -1.4254   0.3732   0.8559   1.0216   1.0689   1.1292   1.1999   1.2627
     1.3182   1.4613   1.5362   1.7383   1.7950   1.8307   1.8948   2.0805
     2.1239   2.1437   2.1729   2.2152   2.2814   2.3188

          k = 0.5000-0.0962 0.0000 ( 59291 PWs)   bands (ev):

   -68.6779 -68.6693 -40.3532 -40.2644 -40.1057 -40.0969 -40.0432 -40.0340
   -21.1146 -20.9205 -20.7187 -20.1599 -19.8051 -19.4686 -19.3236 -19.1703
   -19.0156 -18.7800 -18.6317 -18.5504 -18.1375 -18.1051 -17.9192 -17.7235
   -12.3491 -12.1166 -12.0448 -11.9128 -11.6959 -11.6455 -11.5567 -10.9444
   -10.8895 -10.6235 -10.5274  -9.8599  -9.6958  -9.3385  -9.1124  -8.6411
    -8.6257  -8.5526  -8.3954  -8.3821  -8.1613  -8.0953  -8.0783  -8.0400
    -7.6867  -7.6260  -7.4953  -7.4773  -7.3381  -7.1734  -7.0704  -6.8485
    -6.6237  -6.3827  -6.1799  -6.1591  -5.9499  -5.9298  -5.7846  -5.7354
    -5.4542  -5.3876  -5.1743  -5.0468  -4.4095  -4.3681  -4.0762  -3.7574
    -1.4015   0.1372   0.8705   1.0200   1.1133   1.1291   1.2104   1.2798
     1.3620   1.6155   1.7106   1.7514   1.8371   1.9144   1.9524   1.9901
     2.0586   2.1438   2.2061   2.2395   2.2866   2.3483

          k =-0.3333-0.3849 0.0000 ( 59291 PWs)   bands (ev):

   -68.6779 -68.6693 -40.3532 -40.2644 -40.1057 -40.0970 -40.0432 -40.0340
   -21.1156 -20.9178 -20.7206 -20.1597 -19.8069 -19.4670 -19.3186 -19.1734
   -19.0187 -18.7782 -18.6329 -18.5497 -18.1395 -18.1026 -17.9193 -17.7236
   -12.3502 -12.1139 -12.0476 -11.9110 -11.6847 -11.6584 -11.5557 -10.9441
   -10.8897 -10.6230 -10.5278  -9.8602  -9.6959  -9.3384  -9.1133  -8.6437
    -8.6242  -8.5543  -8.3925  -8.3736  -8.1630  -8.1010  -8.0655  -8.0541
    -7.6872  -7.6242  -7.5021  -7.4710  -7.3374  -7.1735  -7.0710  -6.8540
    -6.6218  -6.3778  -6.1669  -6.1612  -5.9583  -5.9287  -5.7848  -5.7437
    -5.4540  -5.3832  -5.1752  -5.0468  -4.4124  -4.3651  -4.0758  -3.7575
    -1.4096   0.2035   0.8626   1.0168   1.0928   1.1648   1.2045   1.2744
     1.3488   1.5283   1.6861   1.7730   1.8332   1.8852   1.9539   2.0196
     2.0627   2.0885   2.1700   2.2214   2.2985   2.3240

          k = 0.5000 0.0962 0.0000 ( 59291 PWs)   bands (ev):

   -68.6779 -68.6693 -40.3532 -40.2644 -40.1057 -40.0969 -40.0432 -40.0340
   -21.1146 -20.9205 -20.7187 -20.1599 -19.8051 -19.4686 -19.3236 -19.1703
   -19.0156 -18.7800 -18.6317 -18.5504 -18.1375 -18.1051 -17.9192 -17.7235
   -12.3491 -12.1166 -12.0448 -11.9128 -11.6959 -11.6455 -11.5567 -10.9444
   -10.8895 -10.6235 -10.5274  -9.8599  -9.6958  -9.3384  -9.1124  -8.6411
    -8.6257  -8.5527  -8.3954  -8.3821  -8.1614  -8.0953  -8.0783  -8.0399
    -7.6867  -7.6259  -7.4953  -7.4773  -7.3381  -7.1735  -7.0704  -6.8485
    -6.6236  -6.3827  -6.1799  -6.1590  -5.9499  -5.9298  -5.7847  -5.7354
    -5.4543  -5.3876  -5.1743  -5.0468  -4.4095  -4.3681  -4.0762  -3.7574
    -1.4015   0.1372   0.8705   1.0200   1.1133   1.1291   1.2104   1.2798
     1.3620   1.6155   1.7106   1.7514   1.8371   1.9144   1.9525   1.9900
     2.0586   2.1438   2.2060   2.2395   2.2868   2.3482

          k =-0.3333 0.3849 0.0000 ( 59291 PWs)   bands (ev):

   -68.6779 -68.6693 -40.3532 -40.2644 -40.1057 -40.0970 -40.0432 -40.0340
   -21.1156 -20.9178 -20.7206 -20.1597 -19.8069 -19.4670 -19.3186 -19.1734
   -19.0187 -18.7782 -18.6329 -18.5497 -18.1395 -18.1026 -17.9193 -17.7236
   -12.3502 -12.1139 -12.0476 -11.9110 -11.6847 -11.6584 -11.5557 -10.9441
   -10.8897 -10.6229 -10.5278  -9.8602  -9.6958  -9.3384  -9.1133  -8.6437
    -8.6243  -8.5543  -8.3925  -8.3736  -8.1630  -8.1010  -8.0655  -8.0541
    -7.6871  -7.6242  -7.5021  -7.4710  -7.3374  -7.1734  -7.0711  -6.8540
    -6.6218  -6.3778  -6.1669  -6.1612  -5.9583  -5.9288  -5.7848  -5.7437
    -5.4539  -5.3831  -5.1752  -5.0469  -4.4124  -4.3651  -4.0758  -3.7575
    -1.4096   0.2035   0.8626   1.0168   1.0928   1.1649   1.2045   1.2744
     1.3488   1.5283   1.6861   1.7730   1.8332   1.8852   1.9539   2.0195
     2.0627   2.0886   2.1701   2.2214   2.2987   2.3242

          k =-0.1667-0.0962 0.0000 ( 59226 PWs)   bands (ev):

   -68.6779 -68.6693 -40.3532 -40.2644 -40.1057 -40.0969 -40.0432 -40.0340
   -21.3142 -20.5366 -20.3463 -20.3396 -19.9882 -19.9820 -19.8062 -18.7284
   -18.7240 -18.3781 -18.3637 -18.3581 -18.2726 -18.2571 -18.0771 -18.0718
   -12.5121 -12.5022 -12.4101 -11.5836 -11.5787 -11.4326 -11.4183 -10.9279
   -10.9258  -9.9305  -9.9292  -9.6775  -9.3797  -9.3717  -9.2314  -9.2299
    -9.0440  -9.0421  -8.9092  -8.3243  -8.3235  -7.9046  -7.8997  -7.8642
    -7.8454  -7.7724  -7.5961  -7.5758  -7.1137  -7.0860  -6.9614  -6.8897
    -6.8876  -6.8440  -6.5323  -6.5307  -6.2594  -5.3298  -5.3113  -5.1447
    -5.0670  -4.7987  -4.7798  -4.7467  -4.6099  -4.5909  -4.3406  -4.3258
    -1.4444   0.3989   0.9042   1.0276   1.0840   1.1537   1.1991   1.3437
     1.4373   1.5104   1.5893   1.6472   1.7812   1.8280   1.8990   1.9263
     2.0294   2.0757   2.1312   2.1546   2.2158   2.3369

          k =-0.0000-0.1925 0.0000 ( 59226 PWs)   bands (ev):

   -68.6779 -68.6693 -40.3532 -40.2644 -40.1057 -40.0969 -40.0432 -40.0340
   -21.3143 -20.5315 -20.3584 -20.3364 -19.9899 -19.9729 -19.8100 -18.7337
   -18.7148 -18.4007 -18.3657 -18.3516 -18.2559 -18.2544 -18.0855 -18.0685
   -12.5133 -12.5018 -12.4094 -11.5883 -11.5750 -11.4313 -11.4173 -10.9302
   -10.9250  -9.9336  -9.9262  -9.6777  -9.3800  -9.3697  -9.2328  -9.2294
    -9.0435  -9.0431  -8.9096  -8.3265  -8.3205  -7.9051  -7.8992  -7.8525
    -7.8409  -7.7741  -7.6193  -7.5786  -7.1036  -7.0753  -6.9599  -6.8936
    -6.8854  -6.8537  -6.5356  -6.5267  -6.2599  -5.3321  -5.3010  -5.1450
    -5.0666  -4.8383  -4.7756  -4.7392  -4.5912  -4.5821  -4.3508  -4.3231
    -1.4516   0.5264   0.8806   1.0098   1.0829   1.1502   1.1995   1.3255
     1.3789   1.4672   1.5237   1.6000   1.7475   1.8263   1.8863   1.9857
     2.0434   2.0681   2.1272   2.1648   2.2169   2.2921

          k = 0.5000-0.8660 0.0000 ( 59292 PWs)   bands (ev):

   -68.6779 -68.6693 -40.3532 -40.2644 -40.1057 -40.0970 -40.0432 -40.0340
   -21.0529 -21.0452 -20.4703 -20.4647 -19.4296 -19.4237 -19.4110 -19.4077
   -18.9950 -18.9868 -18.3277 -18.3259 -18.3194 -18.3035 -17.7928 -17.7891
   -12.0738 -12.0713 -12.0672 -12.0571 -11.8805 -11.8757 -11.3320 -11.3284
   -10.2363 -10.2349 -10.1372 -10.1329 -10.1313 -10.1280  -8.5637  -8.5510
    -8.5497  -8.5474  -8.5421  -8.5387  -7.8662  -7.8644  -7.8628  -7.8600
    -7.8228  -7.8213  -7.7670  -7.7473  -7.4943  -7.4861  -6.6120  -6.6106
    -6.3355  -6.3121  -6.3057  -6.2862  -6.1931  -6.1869  -5.6968  -5.6919
    -5.5495  -5.5415  -4.7126  -4.7036  -4.6897  -4.6872  -3.8740  -3.8624
    -1.4014   0.1354   0.8756   1.0225   1.1210   1.1698   1.2715   1.3982
     1.4649   1.5408   1.5851   1.7083   1.7416   1.8912   1.9246   1.9367
     1.9867   2.0625   2.1840   2.2370   2.2935   2.3574

          k =-1.0000 0.0000 0.0000 ( 59292 PWs)   bands (ev):

   -68.6779 -68.6693 -40.3532 -40.2644 -40.1057 -40.0969 -40.0432 -40.0340
   -21.0755 -21.0197 -20.4801 -20.4595 -19.4413 -19.4099 -19.4091 -19.4054
   -19.0138 -18.9706 -18.3729 -18.3288 -18.2938 -18.2812 -17.8006 -17.7832
   -12.1113 -12.0756 -12.0460 -12.0330 -11.8865 -11.8700 -11.3520 -11.3098
   -10.2508 -10.2358 -10.1352 -10.1336 -10.1252 -10.1220  -8.6063  -8.5790
    -8.5578  -8.5284  -8.5191  -8.4895  -7.8815  -7.8750  -7.8616  -7.8536
    -7.8144  -7.8138  -7.7814  -7.7455  -7.5162  -7.4666  -6.6165  -6.6036
    -6.3488  -6.3000  -6.2939  -6.2809  -6.2101  -6.1726  -5.7231  -5.6712
    -5.5678  -5.5233  -4.7934  -4.6995  -4.6648  -4.6384  -3.8827  -3.8553
    -1.4329   0.4923   0.8594   1.0255   1.0612   1.1815   1.2184   1.2673
     1.3391   1.3481   1.6155   1.6366   1.6819   1.7961   1.8068   1.8851
     2.1234   2.1482   2.1640   2.2043   2.3172   2.3265

     the Fermi energy is    -1.1629 ev

!    total energy              =   -1133.82877974 Ry

     total all-electron energy =     -6753.504483 Ry
     estimated scf accuracy    <       0.00000007 Ry
     smearing contrib. (-TS)   =      -0.00000000 Ry
     internal energy E=F+TS    =   -1133.82877974 Ry

     The total energy is F=E-TS. E is the sum of the following terms:
     one-electron contribution =   -3952.00022174 Ry
     hartree contribution      =    2004.17318227 Ry
     xc contribution           =    -186.01848759 Ry
     ewald contribution        =    1359.39422986 Ry
     DFT-D3 Dispersion         =      -0.13503725 Ry
     one-center paw contrib.   =    -359.24244528 Ry

     total magnetization       =    10.00 Bohr mag/cell
     absolute magnetization    =    10.01 Bohr mag/cell

     convergence has been achieved in  14 iterations

     Writing output data file ./mytmp/Crdimer0.1425-0.4.save/
 
     init_run     :     18.87s CPU     20.15s WALL (       1 calls)
     electrons    :    533.23s CPU    578.00s WALL (       1 calls)

     Called by init_run:
     wfcinit      :     13.95s CPU     14.63s WALL (       1 calls)
     potinit      :      1.48s CPU      1.55s WALL (       1 calls)
     hinit0       :      1.53s CPU      1.62s WALL (       1 calls)

     Called by electrons:
     c_bands      :    418.36s CPU    444.11s WALL (      14 calls)
     sum_band     :     81.15s CPU     92.54s WALL (      14 calls)
     v_of_rho     :      7.58s CPU      8.36s WALL (      15 calls)
     newd         :     18.28s CPU     25.21s WALL (      15 calls)
     PAW_pot      :      7.37s CPU      7.45s WALL (      15 calls)
     mix_rho      :      0.99s CPU      1.08s WALL (      14 calls)

     Called by c_bands:
     init_us_2    :      5.01s CPU      5.03s WALL (     870 calls)
     cegterg      :    406.02s CPU    431.70s WALL (     420 calls)

     Called by *egterg:
     cdiaghg      :     25.69s CPU     40.80s WALL (    2763 calls)
     h_psi        :    246.94s CPU    256.28s WALL (    2793 calls)
     s_psi        :     27.24s CPU     27.30s WALL (    2793 calls)
     g_psi        :      0.69s CPU      0.70s WALL (    2343 calls)

     Called by h_psi:
     h_psi:calbec :     29.35s CPU     29.95s WALL (    2793 calls)
     vloc_psi     :    187.28s CPU    195.92s WALL (    2793 calls)
     add_vuspsi   :     28.02s CPU     28.11s WALL (    2793 calls)

     General routines
     calbec       :     39.11s CPU     39.85s WALL (    3213 calls)
     fft          :      9.39s CPU     14.05s WALL (     369 calls)
     ffts         :      0.11s CPU      0.13s WALL (      58 calls)
     fftw         :    192.35s CPU    201.02s WALL (  251762 calls)
     interpolate  :      0.42s CPU      0.45s WALL (      30 calls)
 
     Parallel routines
     fft_scatt_xy :     31.36s CPU     32.51s WALL (  252189 calls)
     fft_scatt_yz :     80.08s CPU     88.96s WALL (  252189 calls)
 
     PWSCF        :   9m14.12s CPU  10m 2.82s WALL

 
   This run was terminated on:  14:30:12   2Apr2021            

=------------------------------------------------------------------------------=
   JOB DONE.
=------------------------------------------------------------------------------=
