
     Program PWSCF v.6.7MaX starts on  2Apr2021 at 14: 0: 7 

     This program is part of the open-source Quantum ESPRESSO suite
     for quantum simulation of materials; please cite
         "P. Giannozzi et al., J. Phys.:Condens. Matter 21 395502 (2009);
         "P. Giannozzi et al., J. Phys.:Condens. Matter 29 465901 (2017);
          URL http://www.quantum-espresso.org", 
     in publications or presentations arising from this work. More details at
     http://www.quantum-espresso.org/quote

     Parallel version (MPI), running on    48 processors

     MPI processes distributed on     1 nodes
     R & G space division:  proc/nbgrp/npool/nimage =      48
     Reading input from Crdimer0.1425-0.2.scf.in

     Current dimensions of program PWSCF are:
     Max number of different atomic species (ntypx) = 10
     Max number of k-points (npk) =  40000
     Max angular momentum in pseudopotentials (lmaxx) =  3
     file N.pbe-n-kjpaw_psl.1.0.0.UPF: wavefunction(s)  2S renormalized
     file Cr.pbe-spn-kjpaw_psl.1.0.0.UPF: wavefunction(s)  3S 3P 3D renormalized
     file Cr.pbe-spn-kjpaw_psl.1.0.0.UPF: wavefunction(s)  3S 3P 3D renormalized

     --------------------------------------------
     Parameters for DFT-D3 Dispersion Correction:
     --------------------------------------------
       Reference C6 values for interpolation: 

         atom   Coordination number   C6
         B          0.000           214.36
         B          0.971           150.74
         B          1.944           106.23
         B          2.913            62.89
         B          4.586            56.06
         N          0.000            50.54
         N          0.994            44.25
         N          2.014            39.35
         N          2.990            31.16
         Cr1        0.000          1381.48
         Cr1        1.827           571.38
         Cr1       10.619           306.69
         Cr2        0.000          1381.48
         Cr2        1.827           571.38
         Cr2       10.619           306.69

       Values used:

         atom   Coordination number  R0_AB[au]  C6      C8
         B          3.338            3.039     62.89   2505.93
         B          3.335            3.039     62.89   2506.01
         B          3.343            3.039     62.89   2505.81
         B          3.336            3.039     62.89   2506.00
         B          3.379            3.039     62.86   2504.76
         B          3.335            3.039     62.89   2506.00
         N          3.134            2.478     31.22    688.69
         N          3.135            2.478     31.22    688.69
         N          3.152            2.478     31.21    688.54
         N          3.136            2.478     31.22    688.68
         N          3.145            2.478     31.21    688.60
         N          3.134            2.478     31.22    688.70
         N          3.142            2.478     31.21    688.62
         N          3.134            2.478     31.22    688.70
         N          3.135            2.478     31.22    688.69
         B          3.337            3.039     62.89   2505.97
         B          3.335            3.039     62.89   2506.01
         B          3.335            3.039     62.89   2506.00
         B          3.379            3.039     62.86   2504.76
         B          3.338            3.039     62.89   2505.93
         B          3.337            3.039     62.89   2505.97
         N          3.142            2.478     31.21    688.62
         B          3.335            3.039     62.89   2506.01
         B          3.337            3.039     62.89   2505.95
         B          3.341            3.039     62.89   2505.87
         N          3.134            2.478     31.22    688.70
         N          3.135            2.478     31.22    688.69
         N          3.134            2.478     31.22    688.69
         N          3.134            2.478     31.22    688.69
         N          3.152            2.478     31.21    688.54
         N          3.136            2.478     31.22    688.68
         B          3.341            3.039     62.89   2505.87
         Cr1        0.711            3.252   1330.87 122823.85
         Cr2        0.711            3.252   1330.87 122823.85

         Molecular C6 ( Ry / a.u.^6 ) =     78583.18


     Subspace diagonalization in iterative solution of the eigenvalue problem:
     one sub-group per band group will be used
     scalapack distributed-memory algorithm (size of sub-group:  6*  6 procs)

 
     Parallelization info
     --------------------
     sticks:   dense  smooth     PW     G-vecs:    dense   smooth      PW
     Min         235      98     26                36277     9874    1408
     Max         236      99     27                36282     9883    1425
     Sum       11311    4741   1285              1741401   474235   68095
 


     bravais-lattice index     =            4
     lattice parameter (alat)  =      18.9275  a.u.
     unit-cell volume          =   10553.3021 (a.u.)^3
     number of atoms/cell      =           34
     number of atomic types    =            4
     number of electrons       =       156.00
     number of Kohn-Sham states=           94
     kinetic-energy cutoff     =      48.0000  Ry
     charge density cutoff     =     457.0000  Ry
     scf convergence threshold =      1.0E-07
     mixing beta               =       0.5000
     number of iterations used =            8  plain     mixing
     Exchange-correlation= SLA  PW   PBX  PBC
                           (   1   4   3   4   0   0   0)

     celldm(1)=  18.927497  celldm(2)=   0.000000  celldm(3)=   1.797125
     celldm(4)=   0.000000  celldm(5)=   0.000000  celldm(6)=   0.000000

     crystal axes: (cart. coord. in units of alat)
               a(1) = (   1.000000   0.000000   0.000000 )  
               a(2) = (  -0.500000   0.866025   0.000000 )  
               a(3) = (   0.000000   0.000000   1.797125 )  

     reciprocal axes: (cart. coord. in units 2 pi/alat)
               b(1) = (  1.000000  0.577350  0.000000 )  
               b(2) = (  0.000000  1.154701  0.000000 )  
               b(3) = (  0.000000  0.000000  0.556444 )  


     PseudoPot. # 1 for B  read from file:
     /home/sf05/q-e-qe-6.7MaX-Release/pseudo/B.pbe-n-kjpaw_psl.1.0.0.UPF
     MD5 check sum: d9c678ba5d3b2fd7b74e61139c9288d8
     Pseudo is Projector augmented-wave + core cor, Zval =  3.0
     Generated using "atomic" code by A. Dal Corso  v.5.1.2
     Shape of augmentation charge: PSQ
     Using radial grid of 1059 points,  4 beta functions with: 
                l(1) =   0
                l(2) =   0
                l(3) =   1
                l(4) =   1
     Q(r) pseudized with 0 coefficients 


     PseudoPot. # 2 for N  read from file:
     /home/sf05/q-e-qe-6.7MaX-Release/pseudo/N.pbe-n-kjpaw_psl.1.0.0.UPF
     MD5 check sum: e0e4e94a9c4025c5b51bd7d8793849bd
     Pseudo is Projector augmented-wave + core cor, Zval =  5.0
     Generated using "atomic" code by A. Dal Corso  v.5.1.2
     Shape of augmentation charge: PSQ
     Using radial grid of 1085 points,  4 beta functions with: 
                l(1) =   0
                l(2) =   0
                l(3) =   1
                l(4) =   1
     Q(r) pseudized with 0 coefficients 


     PseudoPot. # 3 for Cr read from file:
     /home/sf05/q-e-qe-6.7MaX-Release/pseudo/Cr.pbe-spn-kjpaw_psl.1.0.0.UPF
     MD5 check sum: 198f1a2427a48552563eee314eba32ba
     Pseudo is Projector augmented-wave + core cor, Zval = 14.0
     Generated using &quot;atomic&quot; code by A. Dal Corso  v.6.3
     Shape of augmentation charge: PSQ
     Using radial grid of 1183 points,  6 beta functions with: 
                l(1) =   0
                l(2) =   0
                l(3) =   1
                l(4) =   1
                l(5) =   2
                l(6) =   2
     Q(r) pseudized with 0 coefficients 


     PseudoPot. # 4 for Cr read from file:
     /home/sf05/q-e-qe-6.7MaX-Release/pseudo/Cr.pbe-spn-kjpaw_psl.1.0.0.UPF
     MD5 check sum: 198f1a2427a48552563eee314eba32ba
     Pseudo is Projector augmented-wave + core cor, Zval = 14.0
     Generated using &quot;atomic&quot; code by A. Dal Corso  v.6.3
     Shape of augmentation charge: PSQ
     Using radial grid of 1183 points,  6 beta functions with: 
                l(1) =   0
                l(2) =   0
                l(3) =   1
                l(4) =   1
                l(5) =   2
                l(6) =   2
     Q(r) pseudized with 0 coefficients 


     atomic species   valence    mass     pseudopotential
        B              3.00    10.81100     B ( 1.00)
        N              5.00    14.00674     N ( 1.00)
        Cr1           14.00    51.99610     Cr( 1.00)
        Cr2           14.00    51.99610     Cr( 1.00)

     Starting magnetic structure 
     atomic species   magnetization
        B            0.000
        N            0.000
        Cr1          1.000
        Cr2          1.000

     No symmetry found



   Cartesian axes

     site n.     atom                  positions (alat units)
         1           B   tau(   1) = (  -0.1250000   0.2165064   0.8985623  )
         2           B   tau(   2) = (   0.3750000   0.6495191   0.8985623  )
         3           B   tau(   3) = (   0.2500000   0.0000000   0.8985623  )
         4           B   tau(   4) = (   0.7500000   0.0000000   0.8985623  )
         5           B   tau(   5) = (   0.1250000   0.2165064   0.8985623  )
         6           B   tau(   6) = (  -0.3750000   0.6495191   0.8985623  )
         7           N   tau(   7) = (   0.7500005   0.2886748   0.8985623  )
         8           N   tau(   8) = (   0.3750005   0.5051812   0.8985623  )
         9           N   tau(   9) = (   0.3750005   0.0721685   0.8985623  )
        10           N   tau(  10) = (   0.6250005   0.0721685   0.8985623  )
        11           N   tau(  11) = (   0.2500005   0.2886748   0.8985623  )
        12           N   tau(  12) = (   0.6250005   0.5051812   0.8985623  )
        13           N   tau(  13) = (   0.0000005   0.2886748   0.8985623  )
        14           N   tau(  14) = (   0.2500005   0.7216875   0.8985623  )
        15           N   tau(  15) = (  -0.2499995   0.7216875   0.8985623  )
        16           B   tau(  16) = (   0.0000000   0.4330127   0.8985623  )
        17           B   tau(  17) = (   0.1250000   0.6495191   0.8985623  )
        18           B   tau(  18) = (  -0.1250000   0.6495191   0.8985623  )
        19           B   tau(  19) = (   0.3750000   0.2165064   0.8985623  )
        20           B   tau(  20) = (   0.6250000   0.2165064   0.8985623  )
        21           B   tau(  21) = (   0.5000000   0.4330127   0.8985623  )
        22           N   tau(  22) = (   0.5000005   0.2886748   0.8985623  )
        23           B   tau(  23) = (  -0.2500000   0.4330127   0.8985623  )
        24           B   tau(  24) = (   0.2500000   0.4330127   0.8985623  )
        25           B   tau(  25) = (   0.5000000   0.0000000   0.8985623  )
        26           N   tau(  26) = (  -0.1249995   0.5051812   0.8985623  )
        27           N   tau(  27) = (   0.1250005   0.5051812   0.8985623  )
        28           N   tau(  28) = (   0.0000005   0.7216875   0.8985623  )
        29           N   tau(  29) = (   0.5000005   0.7216875   0.8985623  )
        30           N   tau(  30) = (   0.1250005   0.0721685   0.8985623  )
        31           N   tau(  31) = (   0.8750005   0.0721685   0.8985623  )
        32           B   tau(  32) = (   0.0000000   0.0000000   0.8985623  )
        33           Cr1 tau(  33) = (   0.3925000   0.1732051   1.2040735  )
        34           Cr2 tau(  34) = (   0.1075000   0.1732051   1.2040735  )

     number of k points=    15  Gaussian smearing, width (Ry)=  0.0000
                       cart. coord. in units 2pi/alat
        k(    1) = (   0.1666667   0.2886751   0.0000000), wk =   0.0740741
        k(    2) = (   0.1666667  -0.4811252   0.0000000), wk =   0.0740741
        k(    3) = (   0.1666667  -0.0962250   0.0000000), wk =   0.0740741
        k(    4) = (  -0.5000000  -0.8660254   0.0000000), wk =   0.0370370
        k(    5) = (  -0.1666667   0.2886751   0.0000000), wk =   0.0740741
        k(    6) = (   0.3333333   0.0000000   0.0000000), wk =   0.0740741
        k(    7) = (  -0.1666667  -0.4811252   0.0000000), wk =   0.0740741
        k(    8) = (   0.5000000  -0.0962250   0.0000000), wk =   0.0740741
        k(    9) = (  -0.3333333  -0.3849002   0.0000000), wk =   0.0740741
        k(   10) = (   0.5000000   0.0962250   0.0000000), wk =   0.0740741
        k(   11) = (  -0.3333333   0.3849002   0.0000000), wk =   0.0740741
        k(   12) = (  -0.1666667  -0.0962250   0.0000000), wk =   0.0740741
        k(   13) = (  -0.0000000  -0.1924501   0.0000000), wk =   0.0740741
        k(   14) = (   0.5000000  -0.8660254   0.0000000), wk =   0.0370370
        k(   15) = (  -1.0000000   0.0000000   0.0000000), wk =   0.0370370

     Dense  grid:  1741401 G-vectors     FFT dimensions: ( 135, 135, 240)

     Smooth grid:   474235 G-vectors     FFT dimensions: (  90,  90, 160)

     Estimated max dynamical RAM per process >     218.62 MB

     Estimated total dynamical RAM >      10.25 GB
     Generating pointlists ...
     new r_m :   0.0595 (alat units)  1.1269 (a.u.) for type    1
     new r_m :   0.0595 (alat units)  1.1269 (a.u.) for type    2
     new r_m :   0.1176 (alat units)  2.2252 (a.u.) for type    3
     new r_m :   0.1176 (alat units)  2.2252 (a.u.) for type    4

     Initial potential from superposition of free atoms

     starting charge  155.99382, renormalised to  156.00000

     negative rho (up, down):  6.714E-03 4.655E-04
     Starting wfcs are  148 randomized atomic wfcs
     Checking if some PAW data can be deallocated... 

     total cpu time spent up to now is       20.1 secs

     Self-consistent Calculation

     iteration #  1     ecut=    48.00 Ry     beta= 0.50
     Davidson diagonalization with overlap
     ethr =  1.00E-02,  avg # of iterations =  2.8

     negative rho (up, down):  4.897E-03 2.912E-03

     total cpu time spent up to now is       64.4 secs

     total energy              =   -1130.73339870 Ry
     estimated scf accuracy    <      11.37775059 Ry

     total magnetization       =    12.00 Bohr mag/cell
     absolute magnetization    =    12.12 Bohr mag/cell

     iteration #  2     ecut=    48.00 Ry     beta= 0.50
     Davidson diagonalization with overlap
     ethr =  7.29E-03,  avg # of iterations =  2.8

     negative rho (up, down):  8.480E-03 7.616E-03

     total cpu time spent up to now is      105.3 secs

     total energy              =   -1132.98159116 Ry
     estimated scf accuracy    <       3.63546853 Ry

     total magnetization       =    10.00 Bohr mag/cell
     absolute magnetization    =    10.10 Bohr mag/cell

     iteration #  3     ecut=    48.00 Ry     beta= 0.50
     Davidson diagonalization with overlap
     ethr =  2.33E-03,  avg # of iterations =  6.8

     negative rho (up, down):  3.803E-03 3.763E-03

     total cpu time spent up to now is      146.5 secs

     total energy              =   -1133.57244645 Ry
     estimated scf accuracy    <       0.78842088 Ry

     total magnetization       =    12.00 Bohr mag/cell
     absolute magnetization    =    12.06 Bohr mag/cell

     iteration #  4     ecut=    48.00 Ry     beta= 0.50
     Davidson diagonalization with overlap
     ethr =  5.05E-04,  avg # of iterations =  6.4

     negative rho (up, down):  6.891E-03 7.746E-03

     total cpu time spent up to now is      186.4 secs

     total energy              =   -1133.77670487 Ry
     estimated scf accuracy    <       0.49932300 Ry

     total magnetization       =    10.00 Bohr mag/cell
     absolute magnetization    =    10.02 Bohr mag/cell

     iteration #  5     ecut=    48.00 Ry     beta= 0.50
     Davidson diagonalization with overlap
     ethr =  3.20E-04,  avg # of iterations =  6.7

     negative rho (up, down):  4.625E-03 4.925E-03

     total cpu time spent up to now is      228.0 secs

     total energy              =   -1133.81556076 Ry
     estimated scf accuracy    <       0.03044039 Ry

     total magnetization       =    10.00 Bohr mag/cell
     absolute magnetization    =    10.02 Bohr mag/cell

     iteration #  6     ecut=    48.00 Ry     beta= 0.50
     Davidson diagonalization with overlap
     c_bands:  1 eigenvalues not converged
     c_bands:  1 eigenvalues not converged
     c_bands:  1 eigenvalues not converged
     ethr =  1.95E-05,  avg # of iterations = 12.3

     negative rho (up, down):  3.853E-03 3.926E-03

     total cpu time spent up to now is      282.2 secs

     total energy              =   -1133.81854343 Ry
     estimated scf accuracy    <       0.04785735 Ry

     total magnetization       =    10.00 Bohr mag/cell
     absolute magnetization    =    10.02 Bohr mag/cell

     iteration #  7     ecut=    48.00 Ry     beta= 0.50
     Davidson diagonalization with overlap
     ethr =  1.95E-05,  avg # of iterations =  6.2

     negative rho (up, down):  3.333E-03 3.800E-03

     total cpu time spent up to now is      324.4 secs

     total energy              =   -1133.82648485 Ry
     estimated scf accuracy    <       0.00258792 Ry

     total magnetization       =    10.00 Bohr mag/cell
     absolute magnetization    =    10.02 Bohr mag/cell

     iteration #  8     ecut=    48.00 Ry     beta= 0.50
     Davidson diagonalization with overlap
     ethr =  1.66E-06,  avg # of iterations =  8.0

     negative rho (up, down):  3.226E-03 3.750E-03

     total cpu time spent up to now is      367.2 secs

     total energy              =   -1133.82731384 Ry
     estimated scf accuracy    <       0.00034355 Ry

     total magnetization       =    10.00 Bohr mag/cell
     absolute magnetization    =    10.01 Bohr mag/cell

     iteration #  9     ecut=    48.00 Ry     beta= 0.50
     Davidson diagonalization with overlap
     ethr =  2.20E-07,  avg # of iterations =  4.4

     negative rho (up, down):  3.153E-03 3.745E-03

     total cpu time spent up to now is      405.0 secs

     total energy              =   -1133.82747983 Ry
     estimated scf accuracy    <       0.00013577 Ry

     total magnetization       =    10.00 Bohr mag/cell
     absolute magnetization    =    10.01 Bohr mag/cell

     iteration # 10     ecut=    48.00 Ry     beta= 0.50
     Davidson diagonalization with overlap
     ethr =  8.70E-08,  avg # of iterations =  3.8

     negative rho (up, down):  3.144E-03 3.759E-03

     total cpu time spent up to now is      444.2 secs

     total energy              =   -1133.82756231 Ry
     estimated scf accuracy    <       0.00003490 Ry

     total magnetization       =    10.00 Bohr mag/cell
     absolute magnetization    =    10.01 Bohr mag/cell

     iteration # 11     ecut=    48.00 Ry     beta= 0.50
     Davidson diagonalization with overlap
     ethr =  2.24E-08,  avg # of iterations =  4.2

     negative rho (up, down):  3.133E-03 3.772E-03

     total cpu time spent up to now is      479.9 secs

     total energy              =   -1133.82758948 Ry
     estimated scf accuracy    <       0.00000904 Ry

     total magnetization       =    10.00 Bohr mag/cell
     absolute magnetization    =    10.01 Bohr mag/cell

     iteration # 12     ecut=    48.00 Ry     beta= 0.50
     Davidson diagonalization with overlap
     ethr =  5.80E-09,  avg # of iterations =  4.7

     negative rho (up, down):  3.129E-03 3.788E-03

     total cpu time spent up to now is      516.6 secs

     total energy              =   -1133.82759812 Ry
     estimated scf accuracy    <       0.00000170 Ry

     total magnetization       =    10.00 Bohr mag/cell
     absolute magnetization    =    10.01 Bohr mag/cell

     iteration # 13     ecut=    48.00 Ry     beta= 0.50
     Davidson diagonalization with overlap
     ethr =  1.09E-09,  avg # of iterations =  5.1

     negative rho (up, down):  3.124E-03 3.792E-03

     total cpu time spent up to now is      555.6 secs

     total energy              =   -1133.82760210 Ry
     estimated scf accuracy    <       0.00000025 Ry

     total magnetization       =    10.00 Bohr mag/cell
     absolute magnetization    =    10.01 Bohr mag/cell

     iteration # 14     ecut=    48.00 Ry     beta= 0.50
     Davidson diagonalization with overlap
     ethr =  1.62E-10,  avg # of iterations =  4.9

     negative rho (up, down):  3.123E-03 3.793E-03
 
     Magnetic moment per site:
     atom:    1    charge:    0.8809    magn:    0.0003    constr:    0.0000
     atom:    2    charge:    0.8803    magn:    0.0001    constr:    0.0000
     atom:    3    charge:    0.8795    magn:    0.0008    constr:    0.0000
     atom:    4    charge:    0.8806    magn:    0.0002    constr:    0.0000
     atom:    5    charge:    0.8806    magn:    0.0002    constr:    0.0000
     atom:    6    charge:    0.8802    magn:    0.0001    constr:    0.0000
     atom:    7    charge:    2.8611    magn:    0.0001    constr:    0.0000
     atom:    8    charge:    2.8608    magn:    0.0005    constr:    0.0000
     atom:    9    charge:    2.8607    magn:    0.0072    constr:    0.0000
     atom:   10    charge:    2.8609    magn:    0.0011    constr:    0.0000
     atom:   11    charge:    2.8603    magn:    0.0061    constr:    0.0000
     atom:   12    charge:    2.8610    magn:    0.0001    constr:    0.0000
     atom:   13    charge:    2.8597    magn:    0.0043    constr:    0.0000
     atom:   14    charge:    2.8599    magn:    0.0003    constr:    0.0000
     atom:   15    charge:    2.8598    magn:    0.0004    constr:    0.0000
     atom:   16    charge:    0.8800    magn:    0.0005    constr:    0.0000
     atom:   17    charge:    0.8800    magn:    0.0001    constr:    0.0000
     atom:   18    charge:    0.8799    magn:    0.0001    constr:    0.0000
     atom:   19    charge:    0.8800    magn:    0.0002    constr:    0.0000
     atom:   20    charge:    0.8804    magn:    0.0003    constr:    0.0000
     atom:   21    charge:    0.8798    magn:    0.0005    constr:    0.0000
     atom:   22    charge:    2.8610    magn:    0.0043    constr:    0.0000
     atom:   23    charge:    0.8801    magn:    0.0002    constr:    0.0000
     atom:   24    charge:    0.8796    magn:    0.0004    constr:    0.0000
     atom:   25    charge:    0.8802    magn:    0.0003    constr:    0.0000
     atom:   26    charge:    2.8598    magn:    0.0001    constr:    0.0000
     atom:   27    charge:    2.8597    magn:    0.0005    constr:    0.0000
     atom:   28    charge:    2.8597    magn:    0.0005    constr:    0.0000
     atom:   29    charge:    2.8596    magn:    0.0005    constr:    0.0000
     atom:   30    charge:    2.8594    magn:    0.0072    constr:    0.0000
     atom:   31    charge:    2.8596    magn:    0.0011    constr:    0.0000
     atom:   32    charge:    0.8804    magn:    0.0003    constr:    0.0000
     atom:   33    charge:   12.5378    magn:    4.2507    constr:    0.0000
     atom:   34    charge:   12.5379    magn:    4.2508    constr:    0.0000

     total cpu time spent up to now is      594.2 secs

     End of self-consistent calculation

 ------ SPIN UP ------------


          k = 0.1667 0.2887 0.0000 ( 59267 PWs)   bands (ev):

   -72.8911 -72.8836 -44.4370 -44.3620 -44.2909 -44.2836 -44.2690 -44.2617
   -21.2421 -20.6567 -20.6503 -20.1019 -20.0896 -19.5838 -19.5774 -19.0948
   -18.6928 -18.6862 -18.4550 -18.4439 -18.1900 -18.0812 -18.0736 -17.8450
   -12.4794 -12.2033 -12.1959 -11.8172 -11.8126 -11.6538 -11.1878 -11.1839
   -10.3874 -10.3634 -10.1136 -10.1102  -9.5847  -9.5834  -8.8350  -8.8202
    -8.8167  -8.7629  -8.7563  -8.5919  -8.1926  -8.0475  -8.0121  -7.8250
    -7.8217  -7.4337  -7.4327  -7.2793  -7.2539  -7.2041  -7.2010  -6.9582
    -6.9486  -6.5617  -6.5348  -6.1494  -6.1479  -5.8678  -5.4140  -5.2924
    -5.2698  -5.1955  -4.9120  -4.8926  -4.5024  -4.3526  -4.3365  -3.9754
    -2.8638  -2.0288  -2.0041  -1.8319  -1.6395  -1.6147  -1.5049  -1.4875
    -1.3926  -1.3786  -1.3385  -0.7429   0.6930   0.9142   1.0144   1.1780
     1.2888   1.4696   1.5206   1.5751   1.6079   1.7995

          k = 0.1667-0.4811 0.0000 ( 59291 PWs)   bands (ev):

   -72.8911 -72.8836 -44.4370 -44.3620 -44.2909 -44.2836 -44.2690 -44.2617
   -21.1115 -20.9078 -20.7181 -20.1560 -19.7996 -19.4621 -19.3122 -19.1700
   -19.0098 -18.7744 -18.6355 -18.5402 -18.1436 -18.0857 -17.9176 -17.7192
   -12.3434 -12.1086 -12.0402 -11.9021 -11.6759 -11.6541 -11.5482 -10.9377
   -10.8854 -10.6191 -10.5189  -9.8556  -9.6887  -9.3317  -9.1064  -8.6633
    -8.6182  -8.5483  -8.3847  -8.3638  -8.1568  -8.1193  -8.0586  -8.0451
    -7.6833  -7.6187  -7.4894  -7.4695  -7.3525  -7.1664  -7.0633  -6.8564
    -6.6176  -6.3856  -6.1733  -6.1533  -5.9679  -5.9248  -5.7788  -5.7420
    -5.4468  -5.3942  -5.2053  -5.0378  -4.4400  -4.3441  -4.0849  -3.7627
    -2.8607  -2.0286  -2.0039  -1.8287  -1.6386  -1.6144  -1.5069  -1.4886
    -1.3935  -1.3781  -1.3396  -0.7466   0.6000   0.9092   1.0121   1.1083
     1.2314   1.2832   1.3848   1.8419   1.9190   2.1231

          k = 0.1667-0.0962 0.0000 ( 59226 PWs)   bands (ev):

   -72.8911 -72.8836 -44.4370 -44.3620 -44.2909 -44.2835 -44.2690 -44.2616
   -21.3086 -20.5306 -20.3416 -20.3339 -19.9838 -19.9757 -19.8015 -18.7247
   -18.7171 -18.3718 -18.3614 -18.3509 -18.2670 -18.2546 -18.0736 -18.0664
   -12.5040 -12.4965 -12.4037 -11.5768 -11.5714 -11.4241 -11.4138 -10.9217
   -10.9191  -9.9254  -9.9213  -9.6712  -9.3724  -9.3655  -9.2264  -9.2232
    -9.0380  -9.0355  -8.9194  -8.3198  -8.3164  -7.8972  -7.8941  -7.8765
    -7.8402  -7.7657  -7.6063  -7.5774  -7.1323  -7.0874  -6.9545  -6.8833
    -6.8808  -6.8478  -6.5267  -6.5233  -6.2528  -5.3458  -5.3130  -5.1386
    -5.0607  -4.8063  -4.7926  -4.7459  -4.6186  -4.5955  -4.3502  -4.3274
    -2.8672  -2.0291  -2.0043  -1.8352  -1.6415  -1.6149  -1.5033  -1.4861
    -1.3918  -1.3791  -1.3376  -0.7388   0.8183   0.9009   0.9564   1.1939
     1.2573   1.3417   1.5845   1.5949   1.7046   1.9442

          k =-0.5000-0.8660 0.0000 ( 59292 PWs)   bands (ev):

   -72.8911 -72.8836 -44.4370 -44.3620 -44.2909 -44.2836 -44.2690 -44.2617
   -21.0465 -21.0402 -20.4658 -20.4586 -19.4243 -19.4135 -19.4108 -19.4023
   -18.9887 -18.9833 -18.3204 -18.3192 -18.3148 -18.3030 -17.7900 -17.7831
   -12.0669 -12.0623 -12.0612 -12.0519 -11.8738 -11.8682 -11.3257 -11.3220
   -10.2313 -10.2265 -10.1306 -10.1279 -10.1264 -10.1207  -8.5850  -8.5464
    -8.5430  -8.5403  -8.5394  -8.5329  -7.8594  -7.8584  -7.8546  -7.8534
    -7.8216  -7.8143  -7.7776  -7.7486  -7.4874  -7.4796  -6.6070  -6.6022
    -6.3592  -6.3217  -6.3037  -6.2919  -6.1874  -6.1809  -5.7074  -5.6932
    -5.5420  -5.5361  -4.7210  -4.7082  -4.7065  -4.6837  -3.8833  -3.8640
    -2.8483  -2.0266  -2.0021  -1.8299  -1.6391  -1.6145  -1.5064  -1.4906
    -1.4003  -1.3826  -1.3420  -0.8682   0.7946   1.0518   1.0887   1.1790
     1.3390   1.5766   1.5861   1.6084   1.6766   1.7663

          k =-0.1667 0.2887 0.0000 ( 59267 PWs)   bands (ev):

   -72.8911 -72.8836 -44.4370 -44.3620 -44.2909 -44.2836 -44.2690 -44.2617
   -21.2421 -20.6568 -20.6503 -20.1019 -20.0896 -19.5838 -19.5773 -19.0948
   -18.6928 -18.6861 -18.4550 -18.4439 -18.1900 -18.0813 -18.0735 -17.8450
   -12.4794 -12.2033 -12.1959 -11.8172 -11.8126 -11.6538 -11.1878 -11.1838
   -10.3874 -10.3633 -10.1137 -10.1102  -9.5847  -9.5833  -8.8350  -8.8202
    -8.8166  -8.7629  -8.7563  -8.5918  -8.1926  -8.0475  -8.0121  -7.8250
    -7.8216  -7.4337  -7.4327  -7.2793  -7.2539  -7.2040  -7.2010  -6.9582
    -6.9487  -6.5617  -6.5348  -6.1494  -6.1478  -5.8678  -5.4141  -5.2924
    -5.2699  -5.1954  -4.9120  -4.8926  -4.5025  -4.3526  -4.3365  -3.9754
    -2.8638  -2.0288  -2.0041  -1.8319  -1.6395  -1.6147  -1.5049  -1.4875
    -1.3926  -1.3786  -1.3385  -0.7429   0.6930   0.9142   1.0144   1.1781
     1.2888   1.4696   1.5206   1.5751   1.6078   1.7995

          k = 0.3333 0.0000 0.0000 ( 59267 PWs)   bands (ev):

   -72.8911 -72.8836 -44.4370 -44.3620 -44.2909 -44.2835 -44.2690 -44.2617
   -21.2417 -20.6794 -20.6275 -20.0983 -20.0918 -19.6069 -19.5559 -19.0966
   -18.7077 -18.6670 -18.4535 -18.4471 -18.1857 -18.1021 -18.0587 -17.8443
   -12.4793 -12.2005 -12.1983 -11.8238 -11.8079 -11.6519 -11.2047 -11.1678
   -10.3861 -10.3635 -10.1247 -10.0992  -9.5907  -9.5763  -8.8422  -8.8184
    -8.8099  -8.7812  -8.7381  -8.5929  -8.1941  -8.0968  -7.9624  -7.8235
    -7.8214  -7.4398  -7.4262  -7.2838  -7.2437  -7.2127  -7.1923  -6.9561
    -6.9517  -6.6141  -6.4903  -6.1519  -6.1446  -5.8740  -5.4137  -5.2985
    -5.2525  -5.1959  -4.9171  -4.8910  -4.4923  -4.3771  -4.3250  -3.9741
    -2.8559  -2.0273  -2.0027  -1.8329  -1.6410  -1.6148  -1.5042  -1.4884
    -1.3969  -1.3816  -1.3401  -0.8274   0.8587   0.9815   1.1403   1.2509
     1.2702   1.4457   1.5353   1.5587   1.6043   1.7928

          k =-0.1667-0.4811 0.0000 ( 59291 PWs)   bands (ev):

   -72.8911 -72.8836 -44.4370 -44.3620 -44.2909 -44.2836 -44.2690 -44.2617
   -21.1115 -20.9078 -20.7181 -20.1560 -19.7996 -19.4620 -19.3122 -19.1700
   -19.0098 -18.7744 -18.6355 -18.5402 -18.1436 -18.0857 -17.9176 -17.7192
   -12.3434 -12.1086 -12.0402 -11.9021 -11.6759 -11.6541 -11.5482 -10.9377
   -10.8854 -10.6191 -10.5189  -9.8556  -9.6887  -9.3318  -9.1064  -8.6633
    -8.6182  -8.5483  -8.3846  -8.3638  -8.1567  -8.1193  -8.0586  -8.0452
    -7.6833  -7.6187  -7.4894  -7.4695  -7.3525  -7.1664  -7.0633  -6.8564
    -6.6176  -6.3856  -6.1734  -6.1534  -5.9679  -5.9247  -5.7788  -5.7420
    -5.4468  -5.3942  -5.2053  -5.0378  -4.4400  -4.3441  -4.0849  -3.7627
    -2.8607  -2.0286  -2.0039  -1.8287  -1.6386  -1.6144  -1.5069  -1.4886
    -1.3935  -1.3781  -1.3396  -0.7466   0.6001   0.9092   1.0121   1.1083
     1.2314   1.2832   1.3849   1.8419   1.9191   2.1233

          k = 0.5000-0.0962 0.0000 ( 59291 PWs)   bands (ev):

   -72.8911 -72.8836 -44.4370 -44.3620 -44.2909 -44.2836 -44.2690 -44.2617
   -21.1090 -20.9146 -20.7137 -20.1544 -19.7999 -19.4636 -19.3176 -19.1655
   -19.0106 -18.7749 -18.6266 -18.5458 -18.1323 -18.1008 -17.9149 -17.7190
   -12.3427 -12.1088 -12.0384 -11.9056 -11.6870 -11.6408 -11.5504 -10.9379
   -10.8836 -10.6176 -10.5210  -9.8534  -9.6894  -9.3327  -9.1059  -8.6534
    -8.6185  -8.5466  -8.3950  -8.3870  -8.1549  -8.0999  -8.0704  -8.0346
    -7.6800  -7.6193  -7.4885  -7.4706  -7.3457  -7.1676  -7.0637  -6.8565
    -6.6178  -6.3950  -6.1901  -6.1527  -5.9535  -5.9238  -5.7782  -5.7432
    -5.4480  -5.3937  -5.1825  -5.0530  -4.4157  -4.3736  -4.0819  -3.7625
    -2.8484  -2.0266  -2.0021  -1.8300  -1.6396  -1.6146  -1.5064  -1.4906
    -1.4003  -1.3827  -1.3420  -0.8679   0.7833   1.0285   1.0796   1.1875
     1.2835   1.3440   1.5017   1.7510   1.8355   1.9004

          k =-0.3333-0.3849 0.0000 ( 59291 PWs)   bands (ev):

   -72.8911 -72.8836 -44.4370 -44.3620 -44.2909 -44.2836 -44.2690 -44.2617
   -21.1099 -20.9122 -20.7154 -20.1542 -19.8015 -19.4620 -19.3132 -19.1685
   -19.0132 -18.7735 -18.6280 -18.5449 -18.1346 -18.0981 -17.9150 -17.7192
   -12.3430 -12.1074 -12.0403 -11.9049 -11.6767 -11.6520 -11.5495 -10.9377
   -10.8832 -10.6170 -10.5220  -9.8543  -9.6895  -9.3320  -9.1065  -8.6564
    -8.6176  -8.5487  -8.3858  -8.3828  -8.1565  -8.1072  -8.0586  -8.0471
    -7.6804  -7.6176  -7.4950  -7.4650  -7.3447  -7.1678  -7.0642  -6.8643
    -6.6160  -6.3860  -6.1745  -6.1546  -5.9660  -5.9230  -5.7786  -5.7528
    -5.4477  -5.3889  -5.1823  -5.0533  -4.4194  -4.3704  -4.0810  -3.7628
    -2.8525  -2.0273  -2.0028  -1.8295  -1.6389  -1.6145  -1.5068  -1.4899
    -1.3980  -1.3811  -1.3412  -0.8309   0.7157   1.0275   1.0878   1.1427
     1.2018   1.3746   1.4028   1.8023   1.9088   1.9238

          k = 0.5000 0.0962 0.0000 ( 59291 PWs)   bands (ev):

   -72.8911 -72.8836 -44.4370 -44.3620 -44.2909 -44.2836 -44.2690 -44.2617
   -21.1090 -20.9146 -20.7137 -20.1544 -19.7999 -19.4636 -19.3176 -19.1655
   -19.0106 -18.7749 -18.6266 -18.5458 -18.1323 -18.1008 -17.9148 -17.7190
   -12.3427 -12.1088 -12.0383 -11.9056 -11.6869 -11.6408 -11.5504 -10.9378
   -10.8836 -10.6176 -10.5211  -9.8534  -9.6895  -9.3327  -9.1058  -8.6534
    -8.6185  -8.5466  -8.3950  -8.3870  -8.1549  -8.0999  -8.0703  -8.0346
    -7.6801  -7.6193  -7.4885  -7.4707  -7.3457  -7.1677  -7.0637  -6.8565
    -6.6177  -6.3950  -6.1900  -6.1526  -5.9535  -5.9238  -5.7783  -5.7432
    -5.4480  -5.3937  -5.1825  -5.0530  -4.4157  -4.3736  -4.0820  -3.7625
    -2.8484  -2.0266  -2.0021  -1.8300  -1.6396  -1.6146  -1.5064  -1.4906
    -1.4003  -1.3827  -1.3420  -0.8679   0.7833   1.0285   1.0796   1.1876
     1.2835   1.3440   1.5017   1.7510   1.8356   1.9003

          k =-0.3333 0.3849 0.0000 ( 59291 PWs)   bands (ev):

   -72.8911 -72.8836 -44.4370 -44.3620 -44.2909 -44.2836 -44.2690 -44.2617
   -21.1099 -20.9122 -20.7154 -20.1542 -19.8015 -19.4620 -19.3132 -19.1685
   -19.0132 -18.7735 -18.6280 -18.5449 -18.1346 -18.0981 -17.9150 -17.7192
   -12.3430 -12.1074 -12.0403 -11.9049 -11.6767 -11.6520 -11.5495 -10.9378
   -10.8831 -10.6169 -10.5220  -9.8543  -9.6895  -9.3319  -9.1065  -8.6564
    -8.6176  -8.5486  -8.3859  -8.3828  -8.1566  -8.1072  -8.0586  -8.0470
    -7.6804  -7.6176  -7.4950  -7.4649  -7.3447  -7.1678  -7.0643  -6.8643
    -6.6160  -6.3860  -6.1745  -6.1546  -5.9660  -5.9231  -5.7785  -5.7528
    -5.4476  -5.3889  -5.1823  -5.0533  -4.4195  -4.3704  -4.0810  -3.7627
    -2.8525  -2.0273  -2.0028  -1.8295  -1.6389  -1.6145  -1.5068  -1.4899
    -1.3980  -1.3811  -1.3412  -0.8309   0.7157   1.0275   1.0878   1.1427
     1.2018   1.3747   1.4028   1.8023   1.9088   1.9237

          k =-0.1667-0.0962 0.0000 ( 59226 PWs)   bands (ev):

   -72.8911 -72.8836 -44.4370 -44.3620 -44.2909 -44.2835 -44.2690 -44.2616
   -21.3086 -20.5306 -20.3416 -20.3339 -19.9838 -19.9757 -19.8015 -18.7247
   -18.7171 -18.3718 -18.3614 -18.3509 -18.2670 -18.2546 -18.0736 -18.0664
   -12.5040 -12.4965 -12.4037 -11.5768 -11.5714 -11.4241 -11.4138 -10.9217
   -10.9191  -9.9254  -9.9214  -9.6711  -9.3724  -9.3655  -9.2264  -9.2232
    -9.0379  -9.0355  -8.9194  -8.3199  -8.3164  -7.8972  -7.8941  -7.8765
    -7.8402  -7.7657  -7.6063  -7.5774  -7.1323  -7.0874  -6.9546  -6.8833
    -6.8808  -6.8478  -6.5267  -6.5233  -6.2529  -5.3458  -5.3130  -5.1385
    -5.0608  -4.8063  -4.7926  -4.7459  -4.6186  -4.5955  -4.3502  -4.3274
    -2.8672  -2.0291  -2.0043  -1.8352  -1.6415  -1.6149  -1.5033  -1.4861
    -1.3918  -1.3791  -1.3376  -0.7388   0.8183   0.9008   0.9564   1.1939
     1.2573   1.3417   1.5845   1.5949   1.7046   1.9446

          k =-0.0000-0.1925 0.0000 ( 59226 PWs)   bands (ev):

   -72.8910 -72.8836 -44.4370 -44.3620 -44.2909 -44.2836 -44.2690 -44.2617
   -21.3087 -20.5261 -20.3504 -20.3330 -19.9837 -19.9690 -19.8048 -18.7269
   -18.7116 -18.3813 -18.3746 -18.3468 -18.2516 -18.2500 -18.0796 -18.0652
   -12.5011 -12.4997 -12.4034 -11.5809 -11.5690 -11.4190 -11.4158 -10.9234
   -10.9191  -9.9259  -9.9205  -9.6718  -9.3718  -9.3654  -9.2261  -9.2235
    -9.0372  -9.0368  -8.9199  -8.3199  -8.3152  -7.8959  -7.8946  -7.8593
    -7.8385  -7.7671  -7.6298  -7.5881  -7.1101  -7.0823  -6.9531  -6.8860
    -6.8796  -6.8597  -6.5284  -6.5211  -6.2533  -5.3403  -5.3099  -5.1389
    -5.0603  -4.8381  -4.7995  -4.7449  -4.5913  -4.5844  -4.3557  -4.3312
    -2.8710  -2.0298  -2.0050  -1.8347  -1.6407  -1.6149  -1.5037  -1.4858
    -1.3897  -1.3775  -1.3369  -0.6895   0.6927   0.8468   0.9603   1.1619
     1.2465   1.3744   1.5698   1.6004   1.7204   1.9673

          k = 0.5000-0.8660 0.0000 ( 59292 PWs)   bands (ev):

   -72.8911 -72.8836 -44.4370 -44.3620 -44.2909 -44.2836 -44.2690 -44.2617
   -21.0466 -21.0402 -20.4658 -20.4586 -19.4243 -19.4135 -19.4108 -19.4023
   -18.9888 -18.9832 -18.3204 -18.3193 -18.3148 -18.3029 -17.7900 -17.7831
   -12.0669 -12.0623 -12.0613 -12.0518 -11.8738 -11.8681 -11.3257 -11.3220
   -10.2314 -10.2266 -10.1306 -10.1279 -10.1264 -10.1207  -8.5850  -8.5464
    -8.5430  -8.5402  -8.5394  -8.5328  -7.8594  -7.8584  -7.8546  -7.8534
    -7.8216  -7.8144  -7.7776  -7.7486  -7.4875  -7.4797  -6.6070  -6.6021
    -6.3592  -6.3217  -6.3036  -6.2919  -6.1874  -6.1807  -5.7074  -5.6933
    -5.5421  -5.5362  -4.7209  -4.7082  -4.7064  -4.6837  -3.8833  -3.8640
    -2.8483  -2.0266  -2.0021  -1.8299  -1.6391  -1.6145  -1.5064  -1.4906
    -1.4003  -1.3826  -1.3420  -0.8682   0.7946   1.0518   1.0887   1.1790
     1.3390   1.5766   1.5860   1.6085   1.6765   1.7663

          k =-1.0000 0.0000 0.0000 ( 59292 PWs)   bands (ev):

   -72.8911 -72.8836 -44.4370 -44.3620 -44.2909 -44.2836 -44.2690 -44.2616
   -21.0682 -21.0160 -20.4727 -20.4559 -19.4217 -19.4163 -19.4121 -19.3953
   -19.0070 -18.9668 -18.3556 -18.3396 -18.2828 -18.2798 -17.7945 -17.7802
   -12.0905 -12.0815 -12.0363 -12.0302 -11.8787 -11.8640 -11.3450 -11.3048
   -10.2412 -10.2293 -10.1297 -10.1282 -10.1192 -10.1171  -8.6261  -8.5650
    -8.5574  -8.5181  -8.5178  -8.4883  -7.8691  -7.8677  -7.8540  -7.8507
    -7.8137  -7.8106  -7.7866  -7.7539  -7.5069  -7.4619  -6.6085  -6.5991
    -6.3475  -6.3200  -6.3108  -6.2780  -6.2025  -6.1685  -5.7273  -5.6808
    -5.5598  -5.5183  -4.7980  -4.7365  -4.6505  -4.6378  -3.8866  -3.8620
    -2.8647  -2.0290  -2.0043  -1.8282  -1.6385  -1.6144  -1.5067  -1.4881
    -1.3913  -1.3767  -1.3389  -0.6981   0.5558   0.7963   1.0057   1.1032
     1.2432   1.4635   1.5932   1.6210   1.6438   1.9450

 ------ SPIN DOWN ----------


          k = 0.1667 0.2887 0.0000 ( 59267 PWs)   bands (ev):

   -68.6919 -68.6833 -40.3635 -40.2745 -40.1110 -40.1022 -40.0693 -40.0604
   -21.2380 -20.6538 -20.6453 -20.0975 -20.0859 -19.5811 -19.5721 -19.0907
   -18.6892 -18.6807 -18.4505 -18.4400 -18.1850 -18.0778 -18.0693 -17.8407
   -12.4767 -12.2002 -12.1933 -11.8146 -11.8102 -11.6515 -11.1857 -11.1805
   -10.3843 -10.3605 -10.1110 -10.1067  -9.5822  -9.5803  -8.8213  -8.8139
    -8.8101  -8.7611  -8.7528  -8.5893  -8.1901  -8.0220  -8.0027  -7.8224
    -7.8192  -7.4303  -7.4293  -7.2592  -7.2399  -7.2020  -7.1980  -6.9554
    -6.9462  -6.5391  -6.5267  -6.1467  -6.1451  -5.8510  -5.4108  -5.2687
    -5.2571  -5.1927  -4.8966  -4.8797  -4.4847  -4.3377  -4.3263  -3.9611
    -1.4432   0.3757   0.9219   1.0353   1.1061   1.1441   1.2515   1.3507
     1.3919   1.4965   1.5344   1.5983   1.6319   1.7139   1.9050   1.9391
     2.0336   2.0848   2.1575   2.1887   2.2768   2.3027

          k = 0.1667-0.4811 0.0000 ( 59291 PWs)   bands (ev):

   -68.6919 -68.6833 -40.3635 -40.2745 -40.1110 -40.1022 -40.0693 -40.0604
   -21.1071 -20.9044 -20.7139 -20.1518 -19.7957 -19.4580 -19.3082 -19.1656
   -19.0057 -18.7704 -18.6299 -18.5368 -18.1375 -18.0834 -17.9130 -17.7148
   -12.3407 -12.1059 -12.0376 -11.8996 -11.6740 -11.6510 -11.5456 -10.9347
   -10.8823 -10.6159 -10.5163  -9.8523  -9.6860  -9.3286  -9.1037  -8.6394
    -8.6155  -8.5451  -8.3822  -8.3514  -8.1542  -8.1015  -8.0564  -8.0424
    -7.6804  -7.6161  -7.4868  -7.4671  -7.3341  -7.1632  -7.0608  -6.8401
    -6.6142  -6.3695  -6.1566  -6.1506  -5.9523  -5.9214  -5.7760  -5.7259
    -5.4441  -5.3788  -5.1818  -5.0283  -4.4184  -4.3376  -4.0706  -3.7489
    -1.4336   0.3637   0.9311   0.9841   1.0440   1.0925   1.2064   1.2346
     1.3562   1.4219   1.5403   1.7383   1.7943   1.8315   1.8762   2.0777
     2.1118   2.1339   2.1545   2.2126   2.2853   2.3037

          k = 0.1667-0.0962 0.0000 ( 59226 PWs)   bands (ev):

   -68.6919 -68.6833 -40.3635 -40.2745 -40.1110 -40.1022 -40.0693 -40.0604
   -21.3045 -20.5261 -20.3375 -20.3306 -19.9788 -19.9721 -19.7979 -18.7194
   -18.7132 -18.3669 -18.3577 -18.3469 -18.2622 -18.2501 -18.0693 -18.0631
   -12.5011 -12.4941 -12.4010 -11.5740 -11.5693 -11.4211 -11.4113 -10.9187
   -10.9165  -9.9223  -9.9188  -9.6681  -9.3696  -9.3628  -9.2228  -9.2203
    -9.0352  -9.0329  -8.9003  -8.3162  -8.3133  -7.8944  -7.8912  -7.8543
    -7.8360  -7.7633  -7.5889  -7.5671  -7.1056  -7.0766  -6.9518  -6.8806
    -6.8785  -6.8369  -6.5239  -6.5209  -6.2503  -5.3215  -5.3006  -5.1356
    -5.0578  -4.7887  -4.7746  -4.7335  -4.6022  -4.5834  -4.3333  -4.3177
    -1.4528   0.3899   0.9263   1.0398   1.0765   1.1233   1.1560   1.3054
     1.4806   1.5460   1.5971   1.6355   1.7680   1.8766   1.8881   1.9195
     1.9643   2.0281   2.1109   2.1679   2.2402   2.2981

          k =-0.5000-0.8660 0.0000 ( 59292 PWs)   bands (ev):

   -68.6919 -68.6833 -40.3635 -40.2745 -40.1110 -40.1022 -40.0693 -40.0604
   -21.0438 -21.0348 -20.4616 -20.4552 -19.4184 -19.4102 -19.4067 -19.3986
   -18.9860 -18.9779 -18.3161 -18.3144 -18.3136 -18.2960 -17.7852 -17.7793
   -12.0633 -12.0601 -12.0598 -12.0480 -11.8711 -11.8662 -11.3235 -11.3186
   -10.2282 -10.2241 -10.1272 -10.1245 -10.1234 -10.1184  -8.5551  -8.5419
    -8.5410  -8.5370  -8.5327  -8.5290  -7.8565  -7.8555  -7.8520  -7.8513
    -7.8167  -7.8109  -7.7597  -7.7380  -7.4859  -7.4764  -6.6039  -6.5997
    -6.3274  -6.3017  -6.2936  -6.2816  -6.1849  -6.1774  -5.6893  -5.6828
    -5.5403  -5.5323  -4.7015  -4.6941  -4.6823  -4.6807  -3.8666  -3.8530
    -1.4096   0.1247   0.9486   0.9986   1.1102   1.1420   1.2193   1.3711
     1.5158   1.5466   1.5780   1.7025   1.7386   1.8685   1.9090   1.9533
     1.9786   2.0399   2.1724   2.2159   2.3039   2.3132

          k =-0.1667 0.2887 0.0000 ( 59267 PWs)   bands (ev):

   -68.6919 -68.6833 -40.3635 -40.2745 -40.1110 -40.1022 -40.0693 -40.0604
   -21.2380 -20.6538 -20.6452 -20.0975 -20.0859 -19.5812 -19.5720 -19.0907
   -18.6893 -18.6806 -18.4505 -18.4400 -18.1850 -18.0778 -18.0693 -17.8407
   -12.4767 -12.2002 -12.1933 -11.8146 -11.8102 -11.6515 -11.1857 -11.1804
   -10.3843 -10.3604 -10.1111 -10.1067  -9.5822  -9.5802  -8.8212  -8.8138
    -8.8101  -8.7612  -8.7528  -8.5893  -8.1901  -8.0220  -8.0027  -7.8224
    -7.8192  -7.4303  -7.4293  -7.2592  -7.2399  -7.2020  -7.1980  -6.9555
    -6.9463  -6.5390  -6.5267  -6.1467  -6.1451  -5.8510  -5.4109  -5.2687
    -5.2571  -5.1926  -4.8966  -4.8797  -4.4847  -4.3377  -4.3263  -3.9611
    -1.4432   0.3757   0.9220   1.0353   1.1061   1.1441   1.2515   1.3507
     1.3919   1.4965   1.5344   1.5982   1.6319   1.7139   1.9050   1.9391
     2.0336   2.0848   2.1575   2.1887   2.2769   2.3028

          k = 0.3333 0.0000 0.0000 ( 59267 PWs)   bands (ev):

   -68.6919 -68.6833 -40.3635 -40.2745 -40.1110 -40.1022 -40.0693 -40.0604
   -21.2377 -20.6734 -20.6256 -20.0945 -20.0879 -19.6006 -19.5540 -19.0921
   -18.7013 -18.6652 -18.4489 -18.4430 -18.1816 -18.0949 -18.0568 -17.8402
   -12.4766 -12.1979 -12.1954 -11.8211 -11.8054 -11.6498 -11.2007 -11.1661
   -10.3832 -10.3606 -10.1206 -10.0973  -9.5874  -9.5742  -8.8269  -8.8151
    -8.8022  -8.7775  -8.7368  -8.5901  -8.1913  -8.0661  -7.9585  -7.8211
    -7.8190  -7.4354  -7.4239  -7.2617  -7.2335  -7.2094  -7.1906  -6.9533
    -6.9492  -6.5849  -6.4861  -6.1489  -6.1423  -5.8553  -5.4105  -5.2797
    -5.2388  -5.1931  -4.8986  -4.8799  -4.4781  -4.3586  -4.3136  -3.9604
    -1.4280   0.2057   0.9834   1.0317   1.1178   1.1520   1.1715   1.4040
     1.4747   1.5122   1.5451   1.6739   1.7791   1.8467   1.8943   1.9251
     2.0024   2.0620   2.1220   2.1682   2.2848   2.3589

          k =-0.1667-0.4811 0.0000 ( 59291 PWs)   bands (ev):

   -68.6919 -68.6833 -40.3635 -40.2745 -40.1110 -40.1022 -40.0693 -40.0604
   -21.1071 -20.9044 -20.7139 -20.1518 -19.7957 -19.4580 -19.3082 -19.1656
   -19.0058 -18.7704 -18.6299 -18.5368 -18.1375 -18.0834 -17.9131 -17.7148
   -12.3407 -12.1058 -12.0376 -11.8996 -11.6740 -11.6510 -11.5456 -10.9347
   -10.8824 -10.6159 -10.5162  -9.8523  -9.6860  -9.3286  -9.1037  -8.6394
    -8.6155  -8.5451  -8.3822  -8.3514  -8.1541  -8.1015  -8.0564  -8.0425
    -7.6804  -7.6161  -7.4868  -7.4670  -7.3341  -7.1632  -7.0607  -6.8401
    -6.6142  -6.3695  -6.1566  -6.1506  -5.9523  -5.9213  -5.7759  -5.7259
    -5.4442  -5.3788  -5.1817  -5.0283  -4.4184  -4.3376  -4.0706  -3.7489
    -1.4336   0.3637   0.9311   0.9841   1.0440   1.0925   1.2064   1.2346
     1.3562   1.4219   1.5403   1.7383   1.7943   1.8315   1.8762   2.0776
     2.1117   2.1339   2.1545   2.2125   2.2854   2.3036

          k = 0.5000-0.0962 0.0000 ( 59291 PWs)   bands (ev):

   -68.6919 -68.6833 -40.3635 -40.2745 -40.1110 -40.1022 -40.0693 -40.0604
   -21.1050 -20.9101 -20.7103 -20.1504 -19.7959 -19.4592 -19.3127 -19.1620
   -19.0064 -18.7707 -18.6228 -18.5414 -18.1285 -18.0955 -17.9109 -17.7147
   -12.3400 -12.1061 -12.0360 -11.9027 -11.6838 -11.6391 -11.5475 -10.9349
   -10.8807 -10.6146 -10.5182  -9.8504  -9.6867  -9.3294  -9.1032  -8.6325
    -8.6157  -8.5437  -8.3853  -8.3721  -8.1525  -8.0882  -8.0667  -8.0332
    -7.6776  -7.6166  -7.4861  -7.4681  -7.3294  -7.1643  -7.0611  -6.8403
    -6.6143  -6.3748  -6.1688  -6.1501  -5.9426  -5.9206  -5.7755  -5.7269
    -5.4452  -5.3785  -5.1662  -5.0387  -4.4008  -4.3587  -4.0684  -3.7488
    -1.4097   0.1264   0.9451   1.0069   1.0735   1.1188   1.1862   1.2497
     1.3805   1.6035   1.6905   1.7648   1.8453   1.9070   1.9506   1.9898
     2.0270   2.1060   2.1893   2.2560   2.2857   2.3488

          k =-0.3333-0.3849 0.0000 ( 59291 PWs)   bands (ev):

   -68.6919 -68.6833 -40.3635 -40.2745 -40.1110 -40.1022 -40.0693 -40.0604
   -21.1057 -20.9081 -20.7116 -20.1504 -19.7972 -19.4579 -19.3091 -19.1644
   -19.0085 -18.7695 -18.6238 -18.5407 -18.1302 -18.0935 -17.9110 -17.7148
   -12.3403 -12.1048 -12.0378 -11.9020 -11.6747 -11.6492 -11.5467 -10.9348
   -10.8804 -10.6140 -10.5189  -9.8511  -9.6868  -9.3289  -9.1037  -8.6345
    -8.6149  -8.5453  -8.3831  -8.3646  -8.1540  -8.0932  -8.0564  -8.0440
    -7.6780  -7.6151  -7.4916  -7.4632  -7.3288  -7.1645  -7.0615  -6.8453
    -6.6128  -6.3697  -6.1579  -6.1515  -5.9505  -5.9200  -5.7758  -5.7335
    -5.4449  -5.3754  -5.1665  -5.0386  -4.4031  -4.3565  -4.0680  -3.7490
    -1.4179   0.1930   0.9387   0.9821   1.0733   1.1111   1.2285   1.2660
     1.3431   1.5190   1.6763   1.7630   1.8405   1.9050   1.9297   1.9967
     2.0574   2.0723   2.1386   2.2253   2.3003   2.3234

          k = 0.5000 0.0962 0.0000 ( 59291 PWs)   bands (ev):

   -68.6919 -68.6833 -40.3635 -40.2745 -40.1110 -40.1022 -40.0693 -40.0604
   -21.1050 -20.9101 -20.7103 -20.1504 -19.7959 -19.4592 -19.3127 -19.1620
   -19.0064 -18.7707 -18.6228 -18.5414 -18.1285 -18.0955 -17.9109 -17.7147
   -12.3400 -12.1062 -12.0360 -11.9028 -11.6838 -11.6391 -11.5475 -10.9349
   -10.8807 -10.6146 -10.5182  -9.8504  -9.6867  -9.3294  -9.1032  -8.6325
    -8.6157  -8.5437  -8.3853  -8.3721  -8.1525  -8.0882  -8.0667  -8.0332
    -7.6777  -7.6166  -7.4861  -7.4681  -7.3294  -7.1644  -7.0610  -6.8403
    -6.6142  -6.3748  -6.1688  -6.1500  -5.9426  -5.9206  -5.7756  -5.7269
    -5.4452  -5.3786  -5.1662  -5.0387  -4.4007  -4.3587  -4.0684  -3.7489
    -1.4097   0.1264   0.9451   1.0069   1.0735   1.1188   1.1862   1.2497
     1.3805   1.6035   1.6905   1.7647   1.8452   1.9070   1.9506   1.9898
     2.0270   2.1060   2.1893   2.2560   2.2857   2.3488

          k =-0.3333 0.3849 0.0000 ( 59291 PWs)   bands (ev):

   -68.6919 -68.6833 -40.3635 -40.2745 -40.1110 -40.1022 -40.0693 -40.0604
   -21.1057 -20.9081 -20.7116 -20.1503 -19.7972 -19.4579 -19.3091 -19.1644
   -19.0085 -18.7695 -18.6238 -18.5407 -18.1301 -18.0935 -17.9110 -17.7148
   -12.3403 -12.1048 -12.0378 -11.9020 -11.6747 -11.6492 -11.5466 -10.9348
   -10.8804 -10.6140 -10.5189  -9.8512  -9.6867  -9.3288  -9.1037  -8.6345
    -8.6150  -8.5453  -8.3832  -8.3646  -8.1540  -8.0932  -8.0564  -8.0440
    -7.6779  -7.6151  -7.4917  -7.4632  -7.3288  -7.1644  -7.0616  -6.8453
    -6.6128  -6.3696  -6.1579  -6.1516  -5.9504  -5.9200  -5.7757  -5.7335
    -5.4448  -5.3753  -5.1665  -5.0386  -4.4032  -4.3565  -4.0680  -3.7489
    -1.4179   0.1930   0.9387   0.9820   1.0733   1.1111   1.2285   1.2660
     1.3431   1.5190   1.6763   1.7630   1.8405   1.9050   1.9297   1.9966
     2.0574   2.0723   2.1386   2.2252   2.3002   2.3233

          k =-0.1667-0.0962 0.0000 ( 59226 PWs)   bands (ev):

   -68.6919 -68.6833 -40.3635 -40.2745 -40.1110 -40.1022 -40.0693 -40.0604
   -21.3045 -20.5261 -20.3375 -20.3306 -19.9788 -19.9721 -19.7979 -18.7194
   -18.7132 -18.3669 -18.3577 -18.3469 -18.2622 -18.2501 -18.0693 -18.0631
   -12.5011 -12.4941 -12.4010 -11.5740 -11.5693 -11.4211 -11.4113 -10.9187
   -10.9165  -9.9223  -9.9188  -9.6680  -9.3695  -9.3628  -9.2228  -9.2204
    -9.0352  -9.0329  -8.9003  -8.3163  -8.3134  -7.8944  -7.8912  -7.8543
    -7.8360  -7.7633  -7.5889  -7.5671  -7.1056  -7.0766  -6.9519  -6.8806
    -6.8785  -6.8369  -6.5238  -6.5208  -6.2503  -5.3215  -5.3006  -5.1355
    -5.0579  -4.7887  -4.7746  -4.7335  -4.6022  -4.5833  -4.3333  -4.3177
    -1.4528   0.3899   0.9263   1.0398   1.0765   1.1233   1.1560   1.3055
     1.4806   1.5460   1.5971   1.6355   1.7680   1.8766   1.8882   1.9195
     1.9643   2.0282   2.1108   2.1679   2.2402   2.2981

          k =-0.0000-0.1925 0.0000 ( 59226 PWs)   bands (ev):

   -68.6919 -68.6833 -40.3635 -40.2744 -40.1110 -40.1022 -40.0693 -40.0604
   -21.3046 -20.5223 -20.3456 -20.3291 -19.9796 -19.9657 -19.8007 -18.7222
   -18.7079 -18.3746 -18.3688 -18.3429 -18.2491 -18.2473 -18.0750 -18.0611
   -12.4986 -12.4968 -12.4007 -11.5780 -11.5667 -11.4166 -11.4131 -10.9204
   -10.9163  -9.9230  -9.9178  -9.6686  -9.3687  -9.3629  -9.2229  -9.2204
    -9.0346  -9.0339  -8.9007  -8.3167  -8.3120  -7.8933  -7.8921  -7.8448
    -7.8321  -7.7644  -7.6054  -7.5737  -7.0939  -7.0696  -6.9506  -6.8832
    -6.8771  -6.8453  -6.5256  -6.5187  -6.2506  -5.3206  -5.2956  -5.1359
    -5.0574  -4.8087  -4.7825  -4.7313  -4.5830  -4.5768  -4.3396  -4.3175
    -1.4599   0.5207   0.8865   1.0050   1.0779   1.1250   1.1981   1.2498
     1.4357   1.5193   1.5263   1.5903   1.7321   1.8566   1.8633   1.9180
     2.0537   2.0594   2.1376   2.1455   2.2015   2.2924

          k = 0.5000-0.8660 0.0000 ( 59292 PWs)   bands (ev):

   -68.6919 -68.6833 -40.3635 -40.2745 -40.1110 -40.1022 -40.0693 -40.0604
   -21.0438 -21.0347 -20.4616 -20.4552 -19.4184 -19.4102 -19.4067 -19.3986
   -18.9861 -18.9778 -18.3162 -18.3144 -18.3136 -18.2959 -17.7852 -17.7793
   -12.0633 -12.0602 -12.0598 -12.0479 -11.8711 -11.8662 -11.3236 -11.3185
   -10.2282 -10.2242 -10.1272 -10.1246 -10.1234 -10.1184  -8.5551  -8.5420
    -8.5411  -8.5369  -8.5327  -8.5289  -7.8565  -7.8555  -7.8520  -7.8513
    -7.8168  -7.8109  -7.7597  -7.7380  -7.4859  -7.4764  -6.6038  -6.5997
    -6.3274  -6.3017  -6.2936  -6.2816  -6.1849  -6.1772  -5.6893  -5.6828
    -5.5404  -5.5323  -4.7015  -4.6941  -4.6822  -4.6807  -3.8666  -3.8530
    -1.4096   0.1247   0.9486   0.9986   1.1102   1.1420   1.2193   1.3711
     1.5158   1.5466   1.5780   1.7025   1.7386   1.8684   1.9090   1.9533
     1.9786   2.0399   2.1724   2.2160   2.3040   2.3136

          k =-1.0000 0.0000 0.0000 ( 59292 PWs)   bands (ev):

   -68.6919 -68.6833 -40.3635 -40.2745 -40.1110 -40.1022 -40.0693 -40.0604
   -21.0623 -21.0141 -20.4681 -20.4521 -19.4173 -19.4118 -19.4080 -19.3922
   -19.0006 -18.9648 -18.3473 -18.3325 -18.2817 -18.2789 -17.7897 -17.7761
   -12.0868 -12.0769 -12.0352 -12.0291 -11.8761 -11.8620 -11.3408 -11.3031
   -10.2372 -10.2262 -10.1265 -10.1252 -10.1166 -10.1150  -8.5942  -8.5609
    -8.5536  -8.5171  -8.5164  -8.4844  -7.8657  -7.8642  -7.8514  -7.8481
    -7.8080  -7.8069  -7.7685  -7.7403  -7.5030  -7.4608  -6.6056  -6.5967
    -6.3226  -6.3011  -6.2982  -6.2690  -6.1983  -6.1664  -5.7090  -5.6679
    -5.5554  -5.5172  -4.7621  -4.7157  -4.6474  -4.6359  -3.8711  -3.8495
    -1.4411   0.4840   0.9308   1.0195   1.0430   1.0703   1.2373   1.2526
     1.3444   1.3515   1.6250   1.6405   1.6757   1.8145   1.8204   1.8427
     2.1242   2.1497   2.1511   2.1869   2.2887   2.2994

     the Fermi energy is    -1.1684 ev

!    total energy              =   -1133.82760296 Ry

     total all-electron energy =     -6753.503306 Ry
     estimated scf accuracy    <       0.00000009 Ry
     smearing contrib. (-TS)   =      -0.00000000 Ry
     internal energy E=F+TS    =   -1133.82760296 Ry

     The total energy is F=E-TS. E is the sum of the following terms:
     one-electron contribution =   -3952.13597449 Ry
     hartree contribution      =    2004.27050138 Ry
     xc contribution           =    -186.02002120 Ry
     ewald contribution        =    1359.43444212 Ry
     DFT-D3 Dispersion         =      -0.13401877 Ry
     one-center paw contrib.   =    -359.24253199 Ry

     total magnetization       =    10.00 Bohr mag/cell
     absolute magnetization    =    10.01 Bohr mag/cell

     convergence has been achieved in  14 iterations

     Writing output data file ./mytmp/Crdimer0.1425-0.2.save/
 
     init_run     :     18.67s CPU     19.78s WALL (       1 calls)
     electrons    :    530.39s CPU    574.38s WALL (       1 calls)

     Called by init_run:
     wfcinit      :     13.63s CPU     14.20s WALL (       1 calls)
     potinit      :      1.54s CPU      1.60s WALL (       1 calls)
     hinit0       :      1.53s CPU      1.65s WALL (       1 calls)

     Called by electrons:
     c_bands      :    415.48s CPU    440.16s WALL (      14 calls)
     sum_band     :     81.36s CPU     92.74s WALL (      14 calls)
     v_of_rho     :      7.72s CPU      8.38s WALL (      15 calls)
     newd         :     17.98s CPU     25.22s WALL (      15 calls)
     PAW_pot      :      7.41s CPU      7.50s WALL (      15 calls)
     mix_rho      :      0.96s CPU      1.10s WALL (      14 calls)

     Called by c_bands:
     init_us_2    :      5.00s CPU      5.03s WALL (     870 calls)
     cegterg      :    403.08s CPU    427.71s WALL (     420 calls)

     Called by *egterg:
     cdiaghg      :     25.47s CPU     40.05s WALL (    2792 calls)
     h_psi        :    244.77s CPU    253.48s WALL (    2822 calls)
     s_psi        :     27.24s CPU     27.28s WALL (    2822 calls)
     g_psi        :      0.67s CPU      0.68s WALL (    2372 calls)

     Called by h_psi:
     h_psi:calbec :     29.05s CPU     29.67s WALL (    2822 calls)
     vloc_psi     :    185.55s CPU    193.48s WALL (    2822 calls)
     add_vuspsi   :     27.86s CPU     27.97s WALL (    2822 calls)

     General routines
     calbec       :     38.69s CPU     39.52s WALL (    3242 calls)
     fft          :      9.53s CPU     14.04s WALL (     369 calls)
     ffts         :      0.12s CPU      0.14s WALL (      58 calls)
     fftw         :    190.93s CPU    199.00s WALL (  248814 calls)
     interpolate  :      0.43s CPU      0.46s WALL (      30 calls)
 
     Parallel routines
     fft_scatt_xy :     31.76s CPU     32.81s WALL (  249241 calls)
     fft_scatt_yz :     79.51s CPU     87.92s WALL (  249241 calls)
 
     PWSCF        :   9m11.07s CPU   9m58.83s WALL

 
   This run was terminated on:  14:10: 6   2Apr2021            

=------------------------------------------------------------------------------=
   JOB DONE.
=------------------------------------------------------------------------------=
