
     Program PWSCF v.6.7MaX starts on  2Apr2021 at 10:56:39 

     This program is part of the open-source Quantum ESPRESSO suite
     for quantum simulation of materials; please cite
         "P. Giannozzi et al., J. Phys.:Condens. Matter 21 395502 (2009);
         "P. Giannozzi et al., J. Phys.:Condens. Matter 29 465901 (2017);
          URL http://www.quantum-espresso.org", 
     in publications or presentations arising from this work. More details at
     http://www.quantum-espresso.org/quote

     Parallel version (MPI), running on    48 processors

     MPI processes distributed on     1 nodes
     R & G space division:  proc/nbgrp/npool/nimage =      48
     Reading input from Crdimer0.1405-0.0.scf.in

     Current dimensions of program PWSCF are:
     Max number of different atomic species (ntypx) = 10
     Max number of k-points (npk) =  40000
     Max angular momentum in pseudopotentials (lmaxx) =  3
     file N.pbe-n-kjpaw_psl.1.0.0.UPF: wavefunction(s)  2S renormalized
     file Cr.pbe-spn-kjpaw_psl.1.0.0.UPF: wavefunction(s)  3S 3P 3D renormalized
     file Cr.pbe-spn-kjpaw_psl.1.0.0.UPF: wavefunction(s)  3S 3P 3D renormalized

     --------------------------------------------
     Parameters for DFT-D3 Dispersion Correction:
     --------------------------------------------
       Reference C6 values for interpolation: 

         atom   Coordination number   C6
         B          0.000           214.36
         B          0.971           150.74
         B          1.944           106.23
         B          2.913            62.89
         B          4.586            56.06
         N          0.000            50.54
         N          0.994            44.25
         N          2.014            39.35
         N          2.990            31.16
         Cr1        0.000          1381.48
         Cr1        1.827           571.38
         Cr1       10.619           306.69
         Cr2        0.000          1381.48
         Cr2        1.827           571.38
         Cr2       10.619           306.69

       Values used:

         atom   Coordination number  R0_AB[au]  C6      C8
         B          3.336            3.039     62.89   2505.99
         B          3.336            3.039     62.89   2505.99
         B          3.366            3.039     62.87   2505.19
         B          3.336            3.039     62.89   2505.99
         B          3.340            3.039     62.89   2505.88
         B          3.340            3.039     62.89   2505.88
         N          3.134            2.478     31.22    688.70
         N          3.134            2.478     31.22    688.70
         N          3.158            2.478     31.21    688.49
         N          3.136            2.478     31.22    688.68
         N          3.135            2.478     31.22    688.69
         N          3.134            2.478     31.22    688.69
         N          3.135            2.478     31.22    688.69
         N          3.134            2.478     31.22    688.69
         N          3.142            2.478     31.21    688.62
         B          3.335            3.039     62.89   2506.01
         B          3.336            3.039     62.89   2505.99
         B          3.340            3.039     62.89   2505.88
         B          3.340            3.039     62.89   2505.88
         B          3.336            3.039     62.89   2505.99
         B          3.335            3.039     62.89   2506.01
         N          3.135            2.478     31.22    688.69
         B          3.335            3.039     62.89   2506.01
         B          3.335            3.039     62.89   2506.01
         B          3.359            3.039     62.88   2505.39
         N          3.134            2.478     31.22    688.69
         N          3.134            2.478     31.22    688.70
         N          3.140            2.478     31.22    688.64
         N          3.140            2.478     31.22    688.64
         N          3.158            2.478     31.21    688.49
         N          3.136            2.478     31.22    688.68
         B          3.359            3.039     62.88   2505.39
         Cr1        0.758            3.252   1285.87 118671.09
         Cr2        0.758            3.252   1285.87 118671.09

         Molecular C6 ( Ry / a.u.^6 ) =     78059.77


     Subspace diagonalization in iterative solution of the eigenvalue problem:
     one sub-group per band group will be used
     scalapack distributed-memory algorithm (size of sub-group:  6*  6 procs)

 
     Parallelization info
     --------------------
     sticks:   dense  smooth     PW     G-vecs:    dense   smooth      PW
     Min         235      98     26                36277     9874    1408
     Max         236      99     27                36282     9883    1425
     Sum       11311    4741   1285              1741401   474235   68095
 


     bravais-lattice index     =            4
     lattice parameter (alat)  =      18.9275  a.u.
     unit-cell volume          =   10553.3021 (a.u.)^3
     number of atoms/cell      =           34
     number of atomic types    =            4
     number of electrons       =       156.00
     number of Kohn-Sham states=           94
     kinetic-energy cutoff     =      48.0000  Ry
     charge density cutoff     =     457.0000  Ry
     scf convergence threshold =      1.0E-07
     mixing beta               =       0.5000
     number of iterations used =            8  plain     mixing
     Exchange-correlation= SLA  PW   PBX  PBC
                           (   1   4   3   4   0   0   0)

     celldm(1)=  18.927497  celldm(2)=   0.000000  celldm(3)=   1.797125
     celldm(4)=   0.000000  celldm(5)=   0.000000  celldm(6)=   0.000000

     crystal axes: (cart. coord. in units of alat)
               a(1) = (   1.000000   0.000000   0.000000 )  
               a(2) = (  -0.500000   0.866025   0.000000 )  
               a(3) = (   0.000000   0.000000   1.797125 )  

     reciprocal axes: (cart. coord. in units 2 pi/alat)
               b(1) = (  1.000000  0.577350  0.000000 )  
               b(2) = (  0.000000  1.154701  0.000000 )  
               b(3) = (  0.000000  0.000000  0.556444 )  


     PseudoPot. # 1 for B  read from file:
     /home/sf05/q-e-qe-6.7MaX-Release/pseudo/B.pbe-n-kjpaw_psl.1.0.0.UPF
     MD5 check sum: d9c678ba5d3b2fd7b74e61139c9288d8
     Pseudo is Projector augmented-wave + core cor, Zval =  3.0
     Generated using "atomic" code by A. Dal Corso  v.5.1.2
     Shape of augmentation charge: PSQ
     Using radial grid of 1059 points,  4 beta functions with: 
                l(1) =   0
                l(2) =   0
                l(3) =   1
                l(4) =   1
     Q(r) pseudized with 0 coefficients 


     PseudoPot. # 2 for N  read from file:
     /home/sf05/q-e-qe-6.7MaX-Release/pseudo/N.pbe-n-kjpaw_psl.1.0.0.UPF
     MD5 check sum: e0e4e94a9c4025c5b51bd7d8793849bd
     Pseudo is Projector augmented-wave + core cor, Zval =  5.0
     Generated using "atomic" code by A. Dal Corso  v.5.1.2
     Shape of augmentation charge: PSQ
     Using radial grid of 1085 points,  4 beta functions with: 
                l(1) =   0
                l(2) =   0
                l(3) =   1
                l(4) =   1
     Q(r) pseudized with 0 coefficients 


     PseudoPot. # 3 for Cr read from file:
     /home/sf05/q-e-qe-6.7MaX-Release/pseudo/Cr.pbe-spn-kjpaw_psl.1.0.0.UPF
     MD5 check sum: 198f1a2427a48552563eee314eba32ba
     Pseudo is Projector augmented-wave + core cor, Zval = 14.0
     Generated using &quot;atomic&quot; code by A. Dal Corso  v.6.3
     Shape of augmentation charge: PSQ
     Using radial grid of 1183 points,  6 beta functions with: 
                l(1) =   0
                l(2) =   0
                l(3) =   1
                l(4) =   1
                l(5) =   2
                l(6) =   2
     Q(r) pseudized with 0 coefficients 


     PseudoPot. # 4 for Cr read from file:
     /home/sf05/q-e-qe-6.7MaX-Release/pseudo/Cr.pbe-spn-kjpaw_psl.1.0.0.UPF
     MD5 check sum: 198f1a2427a48552563eee314eba32ba
     Pseudo is Projector augmented-wave + core cor, Zval = 14.0
     Generated using &quot;atomic&quot; code by A. Dal Corso  v.6.3
     Shape of augmentation charge: PSQ
     Using radial grid of 1183 points,  6 beta functions with: 
                l(1) =   0
                l(2) =   0
                l(3) =   1
                l(4) =   1
                l(5) =   2
                l(6) =   2
     Q(r) pseudized with 0 coefficients 


     atomic species   valence    mass     pseudopotential
        B              3.00    10.81100     B ( 1.00)
        N              5.00    14.00674     N ( 1.00)
        Cr1           14.00    51.99610     Cr( 1.00)
        Cr2           14.00    51.99610     Cr( 1.00)

     Starting magnetic structure 
     atomic species   magnetization
        B            0.000
        N            0.000
        Cr1          1.000
        Cr2          1.000

     No symmetry found



   Cartesian axes

     site n.     atom                  positions (alat units)
         1           B   tau(   1) = (  -0.1250000   0.2165064   0.8985623  )
         2           B   tau(   2) = (   0.3750000   0.6495191   0.8985623  )
         3           B   tau(   3) = (   0.2500000   0.0000000   0.8985623  )
         4           B   tau(   4) = (   0.7500000   0.0000000   0.8985623  )
         5           B   tau(   5) = (   0.1250000   0.2165064   0.8985623  )
         6           B   tau(   6) = (  -0.3750000   0.6495191   0.8985623  )
         7           N   tau(   7) = (   0.7500005   0.2886748   0.8985623  )
         8           N   tau(   8) = (   0.3750005   0.5051812   0.8985623  )
         9           N   tau(   9) = (   0.3750005   0.0721685   0.8985623  )
        10           N   tau(  10) = (   0.6250005   0.0721685   0.8985623  )
        11           N   tau(  11) = (   0.2500005   0.2886748   0.8985623  )
        12           N   tau(  12) = (   0.6250005   0.5051812   0.8985623  )
        13           N   tau(  13) = (   0.0000005   0.2886748   0.8985623  )
        14           N   tau(  14) = (   0.2500005   0.7216875   0.8985623  )
        15           N   tau(  15) = (  -0.2499995   0.7216875   0.8985623  )
        16           B   tau(  16) = (   0.0000000   0.4330127   0.8985623  )
        17           B   tau(  17) = (   0.1250000   0.6495191   0.8985623  )
        18           B   tau(  18) = (  -0.1250000   0.6495191   0.8985623  )
        19           B   tau(  19) = (   0.3750000   0.2165064   0.8985623  )
        20           B   tau(  20) = (   0.6250000   0.2165064   0.8985623  )
        21           B   tau(  21) = (   0.5000000   0.4330127   0.8985623  )
        22           N   tau(  22) = (   0.5000005   0.2886748   0.8985623  )
        23           B   tau(  23) = (  -0.2500000   0.4330127   0.8985623  )
        24           B   tau(  24) = (   0.2500000   0.4330127   0.8985623  )
        25           B   tau(  25) = (   0.5000000   0.0000000   0.8985623  )
        26           N   tau(  26) = (  -0.1249995   0.5051812   0.8985623  )
        27           N   tau(  27) = (   0.1250005   0.5051812   0.8985623  )
        28           N   tau(  28) = (   0.0000005   0.7216875   0.8985623  )
        29           N   tau(  29) = (   0.5000005   0.7216875   0.8985623  )
        30           N   tau(  30) = (   0.1250005   0.0721685   0.8985623  )
        31           N   tau(  31) = (   0.8750005   0.0721685   0.8985623  )
        32           B   tau(  32) = (   0.0000000   0.0000000   0.8985623  )
        33           Cr1 tau(  33) = (   0.3905000   0.0000000   1.2040735  )
        34           Cr2 tau(  34) = (   0.1095000   0.0000000   1.2040735  )

     number of k points=    15  Gaussian smearing, width (Ry)=  0.0000
                       cart. coord. in units 2pi/alat
        k(    1) = (   0.1666667   0.2886751   0.0000000), wk =   0.0740741
        k(    2) = (   0.1666667  -0.4811252   0.0000000), wk =   0.0740741
        k(    3) = (   0.1666667  -0.0962250   0.0000000), wk =   0.0740741
        k(    4) = (  -0.5000000  -0.8660254   0.0000000), wk =   0.0370370
        k(    5) = (  -0.1666667   0.2886751   0.0000000), wk =   0.0740741
        k(    6) = (   0.3333333   0.0000000   0.0000000), wk =   0.0740741
        k(    7) = (  -0.1666667  -0.4811252   0.0000000), wk =   0.0740741
        k(    8) = (   0.5000000  -0.0962250   0.0000000), wk =   0.0740741
        k(    9) = (  -0.3333333  -0.3849002   0.0000000), wk =   0.0740741
        k(   10) = (   0.5000000   0.0962250   0.0000000), wk =   0.0740741
        k(   11) = (  -0.3333333   0.3849002   0.0000000), wk =   0.0740741
        k(   12) = (  -0.1666667  -0.0962250   0.0000000), wk =   0.0740741
        k(   13) = (  -0.0000000  -0.1924501   0.0000000), wk =   0.0740741
        k(   14) = (   0.5000000  -0.8660254   0.0000000), wk =   0.0370370
        k(   15) = (  -1.0000000   0.0000000   0.0000000), wk =   0.0370370

     Dense  grid:  1741401 G-vectors     FFT dimensions: ( 135, 135, 240)

     Smooth grid:   474235 G-vectors     FFT dimensions: (  90,  90, 160)

     Estimated max dynamical RAM per process >     218.62 MB

     Estimated total dynamical RAM >      10.25 GB
     Generating pointlists ...
     new r_m :   0.0595 (alat units)  1.1269 (a.u.) for type    1
     new r_m :   0.0595 (alat units)  1.1269 (a.u.) for type    2
     new r_m :   0.1159 (alat units)  2.1939 (a.u.) for type    3
     new r_m :   0.1159 (alat units)  2.1939 (a.u.) for type    4

     Initial potential from superposition of free atoms

     starting charge  155.99382, renormalised to  156.00000

     negative rho (up, down):  6.711E-03 4.655E-04
     Starting wfcs are  148 randomized atomic wfcs
     Checking if some PAW data can be deallocated... 

     total cpu time spent up to now is       48.3 secs

     Self-consistent Calculation

     iteration #  1     ecut=    48.00 Ry     beta= 0.50
     Davidson diagonalization with overlap
     ethr =  1.00E-02,  avg # of iterations =  2.8

     negative rho (up, down):  4.898E-03 2.910E-03

     total cpu time spent up to now is       88.5 secs

     total energy              =   -1130.73545118 Ry
     estimated scf accuracy    <      11.36501220 Ry

     total magnetization       =    12.00 Bohr mag/cell
     absolute magnetization    =    12.12 Bohr mag/cell

     iteration #  2     ecut=    48.00 Ry     beta= 0.50
     Davidson diagonalization with overlap
     ethr =  7.29E-03,  avg # of iterations =  2.8

     negative rho (up, down):  8.784E-03 7.962E-03

     total cpu time spent up to now is      126.0 secs

     total energy              =   -1132.93076455 Ry
     estimated scf accuracy    <       3.74599504 Ry

     total magnetization       =    10.00 Bohr mag/cell
     absolute magnetization    =    10.07 Bohr mag/cell

     iteration #  3     ecut=    48.00 Ry     beta= 0.50
     Davidson diagonalization with overlap
     ethr =  2.40E-03,  avg # of iterations =  7.3

     negative rho (up, down):  4.177E-03 3.958E-03

     total cpu time spent up to now is      164.5 secs

     total energy              =   -1133.56354280 Ry
     estimated scf accuracy    <       0.86670049 Ry

     total magnetization       =    10.89 Bohr mag/cell
     absolute magnetization    =    10.96 Bohr mag/cell

     iteration #  4     ecut=    48.00 Ry     beta= 0.50
     Davidson diagonalization with overlap
     ethr =  5.56E-04,  avg # of iterations =  6.8

     negative rho (up, down):  7.232E-03 7.511E-03

     total cpu time spent up to now is      200.8 secs

     total energy              =   -1133.76802658 Ry
     estimated scf accuracy    <       0.51281256 Ry

     total magnetization       =    10.00 Bohr mag/cell
     absolute magnetization    =    10.01 Bohr mag/cell

     iteration #  5     ecut=    48.00 Ry     beta= 0.50
     Davidson diagonalization with overlap
     ethr =  3.29E-04,  avg # of iterations =  6.1

     negative rho (up, down):  4.671E-03 4.323E-03

     total cpu time spent up to now is      238.5 secs

     total energy              =   -1133.80794773 Ry
     estimated scf accuracy    <       0.13210662 Ry

     total magnetization       =    10.00 Bohr mag/cell
     absolute magnetization    =    10.01 Bohr mag/cell

     iteration #  6     ecut=    48.00 Ry     beta= 0.50
     Davidson diagonalization with overlap
     ethr =  8.47E-05,  avg # of iterations =  6.8

     negative rho (up, down):  3.744E-03 3.926E-03

     total cpu time spent up to now is      276.5 secs

     total energy              =   -1133.82288563 Ry
     estimated scf accuracy    <       0.02222721 Ry

     total magnetization       =    10.00 Bohr mag/cell
     absolute magnetization    =    10.02 Bohr mag/cell

     iteration #  7     ecut=    48.00 Ry     beta= 0.50
     Davidson diagonalization with overlap
     ethr =  1.42E-05,  avg # of iterations =  9.7

     negative rho (up, down):  3.300E-03 3.809E-03

     total cpu time spent up to now is      317.1 secs

     total energy              =   -1133.82724056 Ry
     estimated scf accuracy    <       0.00535965 Ry

     total magnetization       =    10.00 Bohr mag/cell
     absolute magnetization    =    10.01 Bohr mag/cell

     iteration #  8     ecut=    48.00 Ry     beta= 0.50
     Davidson diagonalization with overlap
     ethr =  3.44E-06,  avg # of iterations =  5.7

     negative rho (up, down):  3.203E-03 3.793E-03

     total cpu time spent up to now is      352.7 secs

     total energy              =   -1133.82807973 Ry
     estimated scf accuracy    <       0.00070887 Ry

     total magnetization       =    10.00 Bohr mag/cell
     absolute magnetization    =    10.01 Bohr mag/cell

     iteration #  9     ecut=    48.00 Ry     beta= 0.50
     Davidson diagonalization with overlap
     ethr =  4.54E-07,  avg # of iterations =  5.0

     negative rho (up, down):  3.145E-03 3.782E-03

     total cpu time spent up to now is      386.8 secs

     total energy              =   -1133.82824473 Ry
     estimated scf accuracy    <       0.00010712 Ry

     total magnetization       =    10.00 Bohr mag/cell
     absolute magnetization    =    10.01 Bohr mag/cell

     iteration # 10     ecut=    48.00 Ry     beta= 0.50
     Davidson diagonalization with overlap
     ethr =  6.87E-08,  avg # of iterations =  3.2

     negative rho (up, down):  3.130E-03 3.792E-03

     total cpu time spent up to now is      424.2 secs

     total energy              =   -1133.82830169 Ry
     estimated scf accuracy    <       0.00001663 Ry

     total magnetization       =    10.00 Bohr mag/cell
     absolute magnetization    =    10.01 Bohr mag/cell

     iteration # 11     ecut=    48.00 Ry     beta= 0.50
     Davidson diagonalization with overlap
     ethr =  1.07E-08,  avg # of iterations =  4.9

     negative rho (up, down):  3.122E-03 3.799E-03

     total cpu time spent up to now is      460.3 secs

     total energy              =   -1133.82831668 Ry
     estimated scf accuracy    <       0.00000329 Ry

     total magnetization       =    10.00 Bohr mag/cell
     absolute magnetization    =    10.01 Bohr mag/cell

     iteration # 12     ecut=    48.00 Ry     beta= 0.50
     Davidson diagonalization with overlap
     ethr =  2.11E-09,  avg # of iterations =  4.0

     negative rho (up, down):  3.119E-03 3.807E-03

     total cpu time spent up to now is      494.3 secs

     total energy              =   -1133.82832101 Ry
     estimated scf accuracy    <       0.00000207 Ry

     total magnetization       =    10.00 Bohr mag/cell
     absolute magnetization    =    10.01 Bohr mag/cell

     iteration # 13     ecut=    48.00 Ry     beta= 0.50
     Davidson diagonalization with overlap
     ethr =  1.33E-09,  avg # of iterations =  4.5

     negative rho (up, down):  3.116E-03 3.810E-03

     total cpu time spent up to now is      526.8 secs

     total energy              =   -1133.82832289 Ry
     estimated scf accuracy    <       0.00000026 Ry

     total magnetization       =    10.00 Bohr mag/cell
     absolute magnetization    =    10.01 Bohr mag/cell

     iteration # 14     ecut=    48.00 Ry     beta= 0.50
     Davidson diagonalization with overlap
     ethr =  1.70E-10,  avg # of iterations =  4.5

     negative rho (up, down):  3.115E-03 3.811E-03
 
     Magnetic moment per site:
     atom:    1    charge:    0.8805    magn:    0.0001    constr:    0.0000
     atom:    2    charge:    0.8806    magn:    0.0004    constr:    0.0000
     atom:    3    charge:    0.8792    magn:    0.0001    constr:    0.0000
     atom:    4    charge:    0.8808    magn:    0.0001    constr:    0.0000
     atom:    5    charge:    0.8801    magn:    0.0008    constr:    0.0000
     atom:    6    charge:    0.8800    magn:    0.0001    constr:    0.0000
     atom:    7    charge:    2.8610    magn:    0.0000    constr:    0.0000
     atom:    8    charge:    2.8609    magn:    0.0002    constr:    0.0000
     atom:    9    charge:    2.8610    magn:    0.0065    constr:    0.0000
     atom:   10    charge:    2.8609    magn:    0.0013    constr:    0.0000
     atom:   11    charge:    2.8607    magn:    0.0009    constr:    0.0000
     atom:   12    charge:    2.8609    magn:    0.0003    constr:    0.0000
     atom:   13    charge:    2.8599    magn:    0.0007    constr:    0.0000
     atom:   14    charge:    2.8599    magn:    0.0004    constr:    0.0000
     atom:   15    charge:    2.8594    magn:    0.0047    constr:    0.0000
     atom:   16    charge:    0.8800    magn:    0.0001    constr:    0.0000
     atom:   17    charge:    0.8803    magn:    0.0004    constr:    0.0000
     atom:   18    charge:    0.8797    magn:    0.0001    constr:    0.0000
     atom:   19    charge:    0.8796    magn:    0.0008    constr:    0.0000
     atom:   20    charge:    0.8799    magn:    0.0001    constr:    0.0000
     atom:   21    charge:    0.8797    magn:    0.0001    constr:    0.0000
     atom:   22    charge:    2.8611    magn:    0.0006    constr:    0.0000
     atom:   23    charge:    0.8798    magn:    0.0001    constr:    0.0000
     atom:   24    charge:    0.8799    magn:    0.0001    constr:    0.0000
     atom:   25    charge:    0.8807    magn:   -0.0000    constr:    0.0000
     atom:   26    charge:    2.8597    magn:    0.0003    constr:    0.0000
     atom:   27    charge:    2.8598    magn:    0.0002    constr:    0.0000
     atom:   28    charge:    2.8595    magn:    0.0040    constr:    0.0000
     atom:   29    charge:    2.8593    magn:    0.0040    constr:    0.0000
     atom:   30    charge:    2.8597    magn:    0.0065    constr:    0.0000
     atom:   31    charge:    2.8596    magn:    0.0013    constr:    0.0000
     atom:   32    charge:    0.8809    magn:   -0.0000    constr:    0.0000
     atom:   33    charge:   12.4973    magn:    4.2208    constr:    0.0000
     atom:   34    charge:   12.4972    magn:    4.2209    constr:    0.0000

     total cpu time spent up to now is      561.2 secs

     End of self-consistent calculation

 ------ SPIN UP ------------


          k = 0.1667 0.2887 0.0000 ( 59267 PWs)   bands (ev):

   -72.8824 -72.8735 -44.4397 -44.3529 -44.2810 -44.2724 -44.2549 -44.2463
   -21.2473 -20.6606 -20.6566 -20.1050 -20.0969 -19.5869 -19.5844 -19.1000
   -18.6979 -18.6920 -18.4583 -18.4508 -18.1956 -18.0858 -18.0787 -17.8502
   -12.4844 -12.2076 -12.2015 -11.8214 -11.8183 -11.6591 -11.1919 -11.1899
   -10.3924 -10.3682 -10.1184 -10.1153  -9.5896  -9.5885  -8.8373  -8.8264
    -8.8230  -8.7662  -8.7630  -8.5971  -8.1976  -8.0542  -8.0138  -7.8300
    -7.8275  -7.4395  -7.4372  -7.2828  -7.2587  -7.2083  -7.2074  -6.9619
    -6.9551  -6.5686  -6.5361  -6.1543  -6.1535  -5.8722  -5.4191  -5.2973
    -5.2737  -5.2008  -4.9126  -4.9010  -4.5083  -4.3578  -4.3397  -3.9801
    -2.8994  -2.0560  -2.0343  -1.8441  -1.6391  -1.5833  -1.4765  -1.4634
    -1.3663  -1.3573  -1.3088  -0.7237   0.6746   0.8555   1.0510   1.2025
     1.2990   1.4831   1.5203   1.5747   1.6097   1.7976

          k = 0.1667-0.4811 0.0000 ( 59291 PWs)   bands (ev):

   -72.8824 -72.8735 -44.4397 -44.3529 -44.2810 -44.2724 -44.2549 -44.2462
   -21.1169 -20.9125 -20.7234 -20.1613 -19.8048 -19.4670 -19.3175 -19.1752
   -19.0149 -18.7792 -18.6421 -18.5447 -18.1497 -18.0897 -17.9227 -17.7245
   -12.3486 -12.1137 -12.0452 -11.9068 -11.6809 -11.6595 -11.5531 -10.9426
   -10.8906 -10.6239 -10.5236  -9.8608  -9.6937  -9.3366  -9.1114  -8.6685
    -8.6234  -8.5537  -8.3895  -8.3677  -8.1621  -8.1230  -8.0632  -8.0507
    -7.6892  -7.6239  -7.4947  -7.4748  -7.3565  -7.1714  -7.0683  -6.8610
    -6.6227  -6.3895  -6.1786  -6.1584  -5.9724  -5.9298  -5.7843  -5.7457
    -5.4520  -5.3974  -5.2099  -5.0423  -4.4456  -4.3483  -4.0895  -3.7678
    -2.8967  -2.0557  -2.0349  -1.8406  -1.6375  -1.5832  -1.4790  -1.4639
    -1.3662  -1.3571  -1.3108  -0.7282   0.5882   0.8454   1.0709   1.1156
     1.2449   1.2738   1.3981   1.8416   1.9283   2.1118

          k = 0.1667-0.0962 0.0000 ( 59226 PWs)   bands (ev):

   -72.8824 -72.8735 -44.4397 -44.3529 -44.2810 -44.2724 -44.2549 -44.2462
   -21.3137 -20.5361 -20.3475 -20.3378 -19.9906 -19.9795 -19.8063 -18.7317
   -18.7209 -18.3764 -18.3682 -18.3552 -18.2703 -18.2619 -18.0793 -18.0706
   -12.5084 -12.5021 -12.4086 -11.5827 -11.5758 -11.4276 -11.4204 -10.9271
   -10.9238  -9.9304  -9.9261  -9.6762  -9.3754  -9.3728  -9.2310  -9.2283
    -9.0428  -9.0407  -8.9240  -8.3248  -8.3214  -7.9022  -7.8999  -7.8813
    -7.8456  -7.7709  -7.6115  -7.5804  -7.1381  -7.0895  -6.9598  -6.8891
    -6.8854  -6.8513  -6.5327  -6.5280  -6.2581  -5.3542  -5.3142  -5.1439
    -5.0659  -4.8098  -4.8007  -4.7488  -4.6157  -4.6076  -4.3560  -4.3295
    -2.9025  -2.0563  -2.0337  -1.8476  -1.6416  -1.5835  -1.4742  -1.4629
    -1.3662  -1.3578  -1.3071  -0.7191   0.7817   0.8440   1.0028   1.2116
     1.2598   1.3493   1.5836   1.6029   1.7312   1.9501

          k =-0.5000-0.8660 0.0000 ( 59292 PWs)   bands (ev):

   -72.8824 -72.8735 -44.4397 -44.3529 -44.2810 -44.2724 -44.2548 -44.2463
   -21.0499 -21.0473 -20.4719 -20.4624 -19.4298 -19.4195 -19.4142 -19.4085
   -18.9925 -18.9898 -18.3259 -18.3205 -18.3165 -18.3152 -17.7961 -17.7872
   -12.0714 -12.0657 -12.0632 -12.0621 -11.8803 -11.8718 -11.3295 -11.3280
   -10.2366 -10.2307 -10.1368 -10.1334 -10.1300 -10.1257  -8.5913  -8.5502
    -8.5475  -8.5451  -8.5444  -8.5384  -7.8657  -7.8640  -7.8590  -7.8573
    -7.8257  -7.8197  -7.7839  -7.7514  -7.4901  -7.4874  -6.6136  -6.6066
    -6.3624  -6.3322  -6.3056  -6.2929  -6.1901  -6.1886  -5.7121  -5.6967
    -5.5459  -5.5426  -4.7300  -4.7212  -4.6958  -4.6911  -3.8915  -3.8652
    -2.8850  -2.0537  -2.0344  -1.8421  -1.6398  -1.5827  -1.4790  -1.4639
    -1.3715  -1.3610  -1.3138  -0.8459   0.7700   0.9993   1.1199   1.1564
     1.3695   1.5710   1.5869   1.6068   1.7369   1.7581

          k =-0.1667 0.2887 0.0000 ( 59267 PWs)   bands (ev):

   -72.8824 -72.8735 -44.4397 -44.3529 -44.2810 -44.2724 -44.2549 -44.2463
   -21.2473 -20.6606 -20.6566 -20.1050 -20.0969 -19.5869 -19.5844 -19.1000
   -18.6979 -18.6920 -18.4583 -18.4508 -18.1955 -18.0858 -18.0787 -17.8502
   -12.4844 -12.2076 -12.2015 -11.8214 -11.8183 -11.6592 -11.1919 -11.1899
   -10.3924 -10.3682 -10.1184 -10.1154  -9.5896  -9.5885  -8.8373  -8.8264
    -8.8229  -8.7662  -8.7630  -8.5970  -8.1977  -8.0542  -8.0139  -7.8300
    -7.8274  -7.4396  -7.4371  -7.2828  -7.2587  -7.2082  -7.2074  -6.9620
    -6.9552  -6.5686  -6.5361  -6.1544  -6.1534  -5.8722  -5.4192  -5.2973
    -5.2737  -5.2007  -4.9126  -4.9010  -4.5083  -4.3578  -4.3397  -3.9801
    -2.8994  -2.0560  -2.0343  -1.8441  -1.6391  -1.5833  -1.4765  -1.4634
    -1.3663  -1.3573  -1.3088  -0.7237   0.6747   0.8555   1.0510   1.2025
     1.2990   1.4831   1.5204   1.5747   1.6097   1.7976

          k = 0.3333 0.0000 0.0000 ( 59267 PWs)   bands (ev):

   -72.8824 -72.8735 -44.4397 -44.3529 -44.2810 -44.2724 -44.2549 -44.2463
   -21.2469 -20.6859 -20.6312 -20.1058 -20.0944 -19.6137 -19.5597 -19.1021
   -18.7141 -18.6707 -18.4617 -18.4493 -18.1907 -18.1089 -18.0626 -17.8494
   -12.4842 -12.2089 -12.2000 -11.8299 -11.8121 -11.6569 -11.2105 -11.1721
   -10.3915 -10.3679 -10.1310 -10.1030  -9.5959  -9.5811  -8.8453  -8.8236
    -8.8152  -8.7886  -8.7421  -8.5979  -8.1995  -8.1021  -7.9654  -7.8289
    -7.8264  -7.4452  -7.4308  -7.2939  -7.2422  -7.2184  -7.1971  -6.9646
    -6.9541  -6.6184  -6.4936  -6.1572  -6.1498  -5.8787  -5.4190  -5.3114
    -5.2490  -5.2010  -4.9212  -4.8950  -4.4996  -4.3844  -4.3257  -3.9785
    -2.8920  -2.0543  -2.0337  -1.8453  -1.6416  -1.5830  -1.4762  -1.4634
    -1.3697  -1.3601  -1.3106  -0.8057   0.8152   0.9925   1.0774   1.2464
     1.3226   1.4996   1.5175   1.5567   1.5890   1.8330

          k =-0.1667-0.4811 0.0000 ( 59291 PWs)   bands (ev):

   -72.8824 -72.8735 -44.4397 -44.3529 -44.2810 -44.2724 -44.2549 -44.2462
   -21.1169 -20.9125 -20.7234 -20.1613 -19.8048 -19.4670 -19.3174 -19.1752
   -19.0149 -18.7792 -18.6421 -18.5447 -18.1497 -18.0897 -17.9227 -17.7245
   -12.3486 -12.1137 -12.0452 -11.9068 -11.6809 -11.6595 -11.5531 -10.9426
   -10.8906 -10.6239 -10.5236  -9.8608  -9.6937  -9.3367  -9.1115  -8.6685
    -8.6233  -8.5537  -8.3895  -8.3677  -8.1620  -8.1230  -8.0633  -8.0507
    -7.6892  -7.6240  -7.4946  -7.4748  -7.3565  -7.1714  -7.0682  -6.8610
    -6.6227  -6.3895  -6.1786  -6.1584  -5.9724  -5.9298  -5.7842  -5.7457
    -5.4521  -5.3974  -5.2099  -5.0423  -4.4456  -4.3483  -4.0895  -3.7678
    -2.8967  -2.0557  -2.0349  -1.8406  -1.6375  -1.5832  -1.4790  -1.4639
    -1.3662  -1.3571  -1.3108  -0.7282   0.5882   0.8454   1.0709   1.1156
     1.2449   1.2737   1.3982   1.8416   1.9283   2.1116

          k = 0.5000-0.0962 0.0000 ( 59291 PWs)   bands (ev):

   -72.8824 -72.8735 -44.4397 -44.3529 -44.2810 -44.2724 -44.2549 -44.2463
   -21.1141 -20.9201 -20.7185 -20.1594 -19.8049 -19.4692 -19.3232 -19.1702
   -19.0159 -18.7803 -18.6314 -18.5510 -18.1372 -18.1067 -17.9198 -17.7241
   -12.3476 -12.1142 -12.0431 -11.9109 -11.6930 -11.6447 -11.5555 -10.9429
   -10.8885 -10.6223 -10.5261  -9.8585  -9.6944  -9.3377  -9.1109  -8.6581
    -8.6239  -8.5515  -8.4002  -8.3918  -8.1600  -8.1033  -8.0765  -8.0389
    -7.6852  -7.6244  -7.4937  -7.4760  -7.3502  -7.1728  -7.0691  -6.8602
    -6.6231  -6.3989  -6.1947  -6.1578  -5.9571  -5.9290  -5.7835  -5.7486
    -5.4531  -5.3982  -5.1865  -5.0566  -4.4237  -4.3764  -4.0863  -3.7671
    -2.8851  -2.0537  -2.0344  -1.8422  -1.6402  -1.5827  -1.4790  -1.4640
    -1.3715  -1.3611  -1.3138  -0.8457   0.7573   0.9949   1.1041   1.1587
     1.3008   1.3172   1.5578   1.7548   1.8442   1.9227

          k =-0.3333-0.3849 0.0000 ( 59291 PWs)   bands (ev):

   -72.8824 -72.8735 -44.4397 -44.3529 -44.2810 -44.2724 -44.2549 -44.2463
   -21.1151 -20.9174 -20.7203 -20.1592 -19.8069 -19.4671 -19.3181 -19.1738
   -19.0188 -18.7785 -18.6330 -18.5501 -18.1399 -18.1034 -17.9199 -17.7243
   -12.3481 -12.1123 -12.0454 -11.9099 -11.6819 -11.6572 -11.5544 -10.9427
   -10.8881 -10.6216 -10.5270  -9.8593  -9.6945  -9.3371  -9.1118  -8.6614
    -8.6226  -8.5537  -8.3916  -8.3864  -8.1616  -8.1108  -8.0633  -8.0533
    -7.6855  -7.6229  -7.5005  -7.4697  -7.3488  -7.1729  -7.0697  -6.8685
    -6.6210  -6.3907  -6.1790  -6.1601  -5.9697  -5.9280  -5.7836  -5.7573
    -5.4530  -5.3927  -5.1873  -5.0571  -4.4263  -4.3736  -4.0856  -3.7674
    -2.8889  -2.0546  -2.0347  -1.8416  -1.6390  -1.5829  -1.4788  -1.4641
    -1.3697  -1.3597  -1.3127  -0.8098   0.6975   0.9593   1.1011   1.1452
     1.2328   1.3813   1.4359   1.8072   1.9048   1.9200

          k = 0.5000 0.0962 0.0000 ( 59291 PWs)   bands (ev):

   -72.8824 -72.8735 -44.4397 -44.3529 -44.2810 -44.2724 -44.2549 -44.2463
   -21.1141 -20.9201 -20.7185 -20.1594 -19.8049 -19.4692 -19.3232 -19.1702
   -19.0159 -18.7803 -18.6314 -18.5510 -18.1372 -18.1067 -17.9198 -17.7241
   -12.3476 -12.1142 -12.0431 -11.9109 -11.6930 -11.6447 -11.5555 -10.9428
   -10.8885 -10.6223 -10.5261  -9.8585  -9.6944  -9.3377  -9.1108  -8.6581
    -8.6239  -8.5516  -8.4002  -8.3918  -8.1600  -8.1033  -8.0765  -8.0388
    -7.6852  -7.6244  -7.4938  -7.4760  -7.3502  -7.1729  -7.0691  -6.8603
    -6.6230  -6.3989  -6.1947  -6.1577  -5.9572  -5.9290  -5.7836  -5.7486
    -5.4531  -5.3982  -5.1865  -5.0565  -4.4237  -4.3763  -4.0863  -3.7671
    -2.8851  -2.0537  -2.0344  -1.8422  -1.6402  -1.5827  -1.4790  -1.4640
    -1.3715  -1.3611  -1.3138  -0.8457   0.7573   0.9949   1.1041   1.1588
     1.3008   1.3172   1.5578   1.7548   1.8442   1.9228

          k =-0.3333 0.3849 0.0000 ( 59291 PWs)   bands (ev):

   -72.8824 -72.8735 -44.4397 -44.3529 -44.2810 -44.2724 -44.2549 -44.2463
   -21.1151 -20.9174 -20.7203 -20.1592 -19.8069 -19.4671 -19.3181 -19.1738
   -19.0188 -18.7785 -18.6330 -18.5501 -18.1399 -18.1034 -17.9199 -17.7243
   -12.3480 -12.1123 -12.0454 -11.9099 -11.6819 -11.6572 -11.5543 -10.9428
   -10.8881 -10.6216 -10.5270  -9.8593  -9.6945  -9.3370  -9.1118  -8.6614
    -8.6227  -8.5536  -8.3916  -8.3864  -8.1616  -8.1108  -8.0633  -8.0533
    -7.6854  -7.6229  -7.5005  -7.4697  -7.3488  -7.1729  -7.0697  -6.8685
    -6.6211  -6.3907  -6.1790  -6.1601  -5.9697  -5.9280  -5.7836  -5.7573
    -5.4529  -5.3927  -5.1873  -5.0571  -4.4263  -4.3736  -4.0856  -3.7674
    -2.8889  -2.0546  -2.0347  -1.8416  -1.6390  -1.5829  -1.4788  -1.4641
    -1.3697  -1.3597  -1.3127  -0.8098   0.6975   0.9593   1.1011   1.1452
     1.2329   1.3813   1.4359   1.8071   1.9048   1.9198

          k =-0.1667-0.0962 0.0000 ( 59226 PWs)   bands (ev):

   -72.8824 -72.8735 -44.4397 -44.3529 -44.2810 -44.2724 -44.2549 -44.2462
   -21.3137 -20.5361 -20.3475 -20.3378 -19.9906 -19.9795 -19.8063 -18.7317
   -18.7209 -18.3764 -18.3681 -18.3552 -18.2703 -18.2619 -18.0792 -18.0706
   -12.5084 -12.5021 -12.4085 -11.5826 -11.5758 -11.4277 -11.4204 -10.9271
   -10.9238  -9.9304  -9.9261  -9.6762  -9.3754  -9.3728  -9.2310  -9.2283
    -9.0428  -9.0407  -8.9240  -8.3248  -8.3215  -7.9022  -7.8998  -7.8813
    -7.8455  -7.7709  -7.6114  -7.5804  -7.1381  -7.0895  -6.9599  -6.8891
    -6.8854  -6.8513  -6.5326  -6.5280  -6.2581  -5.3542  -5.3142  -5.1438
    -5.0660  -4.8098  -4.8007  -4.7488  -4.6157  -4.6076  -4.3560  -4.3295
    -2.9025  -2.0563  -2.0337  -1.8476  -1.6416  -1.5835  -1.4742  -1.4629
    -1.3662  -1.3578  -1.3071  -0.7191   0.7817   0.8440   1.0028   1.2115
     1.2598   1.3493   1.5837   1.6029   1.7311   1.9503

          k =-0.0000-0.1925 0.0000 ( 59226 PWs)   bands (ev):

   -72.8824 -72.8735 -44.4397 -44.3528 -44.2810 -44.2724 -44.2549 -44.2463
   -21.3138 -20.5311 -20.3540 -20.3402 -19.9874 -19.9752 -19.8099 -18.7308
   -18.7181 -18.3940 -18.3732 -18.3527 -18.2553 -18.2552 -18.0833 -18.0717
   -12.5098 -12.5009 -12.4084 -11.5845 -11.5756 -11.4268 -11.4180 -10.9285
   -10.9242  -9.9294  -9.9270  -9.6767  -9.3759  -9.3711  -9.2305  -9.2293
    -9.0427  -9.0411  -8.9247  -8.3242  -8.3211  -7.9012  -7.8992  -7.8645
    -7.8440  -7.7727  -7.6329  -7.5928  -7.1130  -7.0878  -6.9585  -6.8907
    -6.8854  -6.8630  -6.5329  -6.5269  -6.2588  -5.3440  -5.3162  -5.1440
    -5.0657  -4.8366  -4.8078  -4.7523  -4.5957  -4.5893  -4.3574  -4.3373
    -2.9061  -2.0571  -2.0340  -1.8471  -1.6404  -1.5836  -1.4746  -1.4627
    -1.3645  -1.3564  -1.3064  -0.6712   0.6693   0.8039   0.9930   1.1831
     1.2484   1.3797   1.5802   1.6192   1.6876   2.0031

          k = 0.5000-0.8660 0.0000 ( 59292 PWs)   bands (ev):

   -72.8824 -72.8735 -44.4397 -44.3529 -44.2810 -44.2724 -44.2548 -44.2463
   -21.0498 -21.0474 -20.4719 -20.4624 -19.4298 -19.4194 -19.4142 -19.4085
   -18.9924 -18.9899 -18.3259 -18.3206 -18.3165 -18.3152 -17.7961 -17.7872
   -12.0713 -12.0658 -12.0632 -12.0621 -11.8803 -11.8718 -11.3295 -11.3280
   -10.2366 -10.2308 -10.1368 -10.1334 -10.1300 -10.1258  -8.5913  -8.5502
    -8.5474  -8.5452  -8.5445  -8.5383  -7.8657  -7.8639  -7.8590  -7.8573
    -7.8258  -7.8198  -7.7839  -7.7514  -7.4901  -7.4874  -6.6135  -6.6066
    -6.3624  -6.3322  -6.3056  -6.2929  -6.1900  -6.1885  -5.7121  -5.6967
    -5.5460  -5.5427  -4.7299  -4.7212  -4.6958  -4.6911  -3.8915  -3.8652
    -2.8850  -2.0537  -2.0344  -1.8421  -1.6398  -1.5827  -1.4790  -1.4639
    -1.3715  -1.3610  -1.3138  -0.8459   0.7700   0.9993   1.1199   1.1565
     1.3694   1.5710   1.5868   1.6068   1.7370   1.7581

          k =-1.0000 0.0000 0.0000 ( 59292 PWs)   bands (ev):

   -72.8824 -72.8735 -44.4398 -44.3529 -44.2810 -44.2724 -44.2549 -44.2462
   -21.0747 -21.0198 -20.4763 -20.4628 -19.4245 -19.4210 -19.4202 -19.4003
   -19.0132 -18.9706 -18.3713 -18.3356 -18.2918 -18.2804 -17.7982 -17.7868
   -12.1025 -12.0815 -12.0396 -12.0348 -11.8821 -11.8709 -11.3509 -11.3090
   -10.2423 -10.2397 -10.1326 -10.1314 -10.1249 -10.1239  -8.6323  -8.5750
    -8.5580  -8.5280  -8.5172  -8.4912  -7.8755  -7.8695  -7.8608  -7.8604
    -7.8167  -7.8140  -7.7899  -7.7592  -7.5140  -7.4658  -6.6128  -6.6046
    -6.3560  -6.3298  -6.3084  -6.2797  -6.2088  -6.1726  -5.7379  -5.6777
    -5.5668  -5.5222  -4.7948  -4.7535  -4.6490  -4.6440  -3.8886  -3.8701
    -2.9005  -2.0560  -2.0349  -1.8401  -1.6367  -1.5834  -1.4792  -1.4636
    -1.3645  -1.3558  -1.3098  -0.6813   0.5458   0.7643   1.0629   1.1151
     1.1898   1.5487   1.5770   1.5999   1.6416   1.9371

 ------ SPIN DOWN ----------


          k = 0.1667 0.2887 0.0000 ( 59267 PWs)   bands (ev):

   -68.6877 -68.6774 -40.3794 -40.2769 -40.1017 -40.0915 -40.0559 -40.0456
   -21.2436 -20.6567 -20.6533 -20.1009 -20.0936 -19.5834 -19.5806 -19.0961
   -18.6931 -18.6884 -18.4541 -18.4473 -18.1908 -18.0819 -18.0757 -17.8462
   -12.4822 -12.2048 -12.1994 -11.8190 -11.8163 -11.6570 -11.1893 -11.1876
   -10.3897 -10.3658 -10.1153 -10.1130  -9.5869  -9.5864  -8.8247  -8.8206
    -8.8166  -8.7639  -8.7606  -8.5947  -8.1954  -8.0306  -8.0045  -7.8275
    -7.8252  -7.4360  -7.4344  -7.2635  -7.2459  -7.2061  -7.2049  -6.9594
    -6.9530  -6.5478  -6.5280  -6.1517  -6.1511  -5.8563  -5.4162  -5.2745
    -5.2623  -5.1982  -4.8980  -4.8887  -4.4910  -4.3425  -4.3313  -3.9665
    -1.4552   0.3909   0.7922   0.9900   1.1174   1.1879   1.2690   1.3495
     1.4190   1.4910   1.5535   1.6025   1.6385   1.7420   1.9017   1.9721
     2.0441   2.0998   2.1473   2.1849   2.2970   2.3444

          k = 0.1667-0.4811 0.0000 ( 59291 PWs)   bands (ev):

   -68.6877 -68.6774 -40.3795 -40.2769 -40.1017 -40.0915 -40.0559 -40.0456
   -21.1129 -20.9094 -20.7196 -20.1575 -19.8011 -19.4633 -19.3138 -19.1712
   -19.0111 -18.7755 -18.6369 -18.5417 -18.1441 -18.0876 -17.9186 -17.7204
   -12.3463 -12.1113 -12.0429 -11.9047 -11.6789 -11.6569 -11.5508 -10.9400
   -10.8879 -10.6213 -10.5213  -9.8579  -9.6914  -9.3339  -9.1090  -8.6457
    -8.6209  -8.5508  -8.3873  -8.3560  -8.1597  -8.1064  -8.0610  -8.0484
    -7.6865  -7.6215  -7.4922  -7.4726  -7.3393  -7.1685  -7.0659  -6.8455
    -6.6195  -6.3744  -6.1625  -6.1559  -5.9577  -5.9267  -5.7816  -5.7308
    -5.4495  -5.3832  -5.1880  -5.0332  -4.4250  -4.3420  -4.0760  -3.7545
    -1.4461   0.3786   0.7876   0.9536   1.0497   1.1320   1.2033   1.2818
     1.3637   1.4145   1.5735   1.7329   1.7952   1.8772   1.9046   2.0754
     2.1181   2.1401   2.1668   2.2242   2.3085   2.3425

          k = 0.1667-0.0962 0.0000 ( 59226 PWs)   bands (ev):

   -68.6877 -68.6774 -40.3794 -40.2769 -40.1017 -40.0914 -40.0559 -40.0455
   -21.3101 -20.5319 -20.3438 -20.3347 -19.9861 -19.9762 -19.8031 -18.7268
   -18.7173 -18.3716 -18.3645 -18.3515 -18.2658 -18.2581 -18.0755 -18.0675
   -12.5058 -12.5001 -12.4063 -11.5802 -11.5739 -11.4249 -11.4183 -10.9244
   -10.9215  -9.9277  -9.9239  -9.6734  -9.3729  -9.3704  -9.2280  -9.2257
    -9.0405  -9.0384  -8.9058  -8.3217  -8.3186  -7.8995  -7.8974  -7.8600
    -7.8417  -7.7687  -7.5952  -7.5704  -7.1135  -7.0791  -6.9573  -6.8866
    -6.8833  -6.8412  -6.5299  -6.5258  -6.2556  -5.3308  -5.3027  -5.1411
    -5.0632  -4.7914  -4.7845  -4.7374  -4.6020  -4.5948  -4.3404  -4.3205
    -1.4644   0.4051   0.7979   0.9885   1.0806   1.1494   1.2115   1.3181
     1.4686   1.5368   1.6066   1.6913   1.7795   1.8605   1.8906   1.9362
     1.9808   2.0558   2.1299   2.1431   2.2508   2.3150

          k =-0.5000-0.8660 0.0000 ( 59292 PWs)   bands (ev):

   -68.6877 -68.6774 -40.3795 -40.2769 -40.1017 -40.0915 -40.0558 -40.0456
   -21.0459 -21.0438 -20.4681 -20.4593 -19.4245 -19.4155 -19.4109 -19.4053
   -18.9888 -18.9862 -18.3202 -18.3176 -18.3149 -18.3094 -17.7918 -17.7837
   -12.0676 -12.0642 -12.0620 -12.0592 -11.8779 -11.8702 -11.3270 -11.3257
   -10.2338 -10.2287 -10.1335 -10.1307 -10.1274 -10.1236  -8.5636  -8.5449
    -8.5442  -8.5432  -8.5419  -8.5318  -7.8629  -7.8612  -7.8570  -7.8552
    -7.8220  -7.8165  -7.7667  -7.7410  -7.4883  -7.4847  -6.6105  -6.6045
    -6.3332  -6.3131  -6.2954  -6.2839  -6.1878  -6.1853  -5.6945  -5.6876
    -5.5434  -5.5399  -4.7082  -4.6988  -4.6881  -4.6853  -3.8749  -3.8554
    -1.4231   0.1430   0.7920   1.0392   1.0693   1.1317   1.2816   1.4199
     1.5178   1.5358   1.5896   1.6956   1.7611   1.8724   1.9234   1.9505
     1.9884   2.0449   2.1633   2.2237   2.3160   2.3485

          k =-0.1667 0.2887 0.0000 ( 59267 PWs)   bands (ev):

   -68.6877 -68.6774 -40.3794 -40.2769 -40.1017 -40.0915 -40.0559 -40.0456
   -21.2436 -20.6567 -20.6533 -20.1009 -20.0936 -19.5834 -19.5806 -19.0961
   -18.6930 -18.6884 -18.4541 -18.4473 -18.1908 -18.0819 -18.0757 -17.8462
   -12.4822 -12.2048 -12.1994 -11.8190 -11.8163 -11.6571 -11.1893 -11.1875
   -10.3897 -10.3658 -10.1152 -10.1131  -9.5869  -9.5864  -8.8247  -8.8205
    -8.8166  -8.7640  -8.7606  -8.5947  -8.1954  -8.0306  -8.0045  -7.8274
    -7.8252  -7.4360  -7.4344  -7.2635  -7.2459  -7.2061  -7.2048  -6.9594
    -6.9530  -6.5478  -6.5280  -6.1517  -6.1510  -5.8563  -5.4162  -5.2745
    -5.2623  -5.1981  -4.8980  -4.8887  -4.4910  -4.3425  -4.3313  -3.9665
    -1.4552   0.3909   0.7922   0.9900   1.1174   1.1879   1.2690   1.3495
     1.4190   1.4910   1.5535   1.6025   1.6385   1.7420   1.9016   1.9720
     2.0442   2.0999   2.1472   2.1851   2.2974   2.3445

          k = 0.3333 0.0000 0.0000 ( 59267 PWs)   bands (ev):

   -68.6877 -68.6774 -40.3795 -40.2769 -40.1017 -40.0914 -40.0558 -40.0456
   -21.2432 -20.6805 -20.6294 -20.1021 -20.0909 -19.6080 -19.5578 -19.0980
   -18.7081 -18.6690 -18.4575 -18.4455 -18.1868 -18.1027 -18.0607 -17.8455
   -12.4818 -12.2066 -12.1975 -11.8274 -11.8100 -11.6550 -11.2069 -11.1705
   -10.3890 -10.3655 -10.1274 -10.1013  -9.5931  -9.5792  -8.8317  -8.8202
    -8.8079  -8.7850  -8.7408  -8.5955  -8.1970  -8.0733  -7.9615  -7.8265
    -7.8242  -7.4415  -7.4285  -7.2727  -7.2328  -7.2153  -7.1955  -6.9619
    -6.9518  -6.5915  -6.4894  -6.1544  -6.1476  -5.8610  -5.4161  -5.2908
    -5.2385  -5.1984  -4.9047  -4.8839  -4.4845  -4.3669  -4.3160  -3.9655
    -1.4407   0.2229   0.8365   0.9946   1.0909   1.1568   1.2910   1.4366
     1.4770   1.4888   1.5527   1.7078   1.7677   1.8430   1.9040   1.9342
     2.0130   2.0857   2.1309   2.1924   2.3040   2.3290

          k =-0.1667-0.4811 0.0000 ( 59291 PWs)   bands (ev):

   -68.6877 -68.6774 -40.3795 -40.2769 -40.1017 -40.0915 -40.0559 -40.0456
   -21.1129 -20.9094 -20.7196 -20.1575 -19.8011 -19.4633 -19.3137 -19.1712
   -19.0111 -18.7755 -18.6369 -18.5416 -18.1441 -18.0876 -17.9186 -17.7204
   -12.3463 -12.1113 -12.0429 -11.9046 -11.6789 -11.6569 -11.5509 -10.9400
   -10.8880 -10.6213 -10.5212  -9.8579  -9.6914  -9.3339  -9.1091  -8.6457
    -8.6208  -8.5508  -8.3873  -8.3560  -8.1596  -8.1064  -8.0610  -8.0485
    -7.6865  -7.6216  -7.4921  -7.4726  -7.3393  -7.1685  -7.0659  -6.8455
    -6.6196  -6.3744  -6.1625  -6.1559  -5.9577  -5.9267  -5.7816  -5.7308
    -5.4496  -5.3832  -5.1880  -5.0332  -4.4250  -4.3420  -4.0760  -3.7545
    -1.4461   0.3786   0.7876   0.9536   1.0497   1.1320   1.2033   1.2818
     1.3637   1.4145   1.5735   1.7329   1.7951   1.8773   1.9046   2.0757
     2.1182   2.1400   2.1668   2.2240   2.3086   2.3427

          k = 0.5000-0.0962 0.0000 ( 59291 PWs)   bands (ev):

   -68.6877 -68.6774 -40.3794 -40.2769 -40.1017 -40.0914 -40.0559 -40.0456
   -21.1105 -20.9160 -20.7153 -20.1558 -19.8012 -19.4652 -19.3187 -19.1670
   -19.0119 -18.7764 -18.6278 -18.5470 -18.1332 -18.1021 -17.9162 -17.7201
   -12.3452 -12.1118 -12.0411 -11.9084 -11.6902 -11.6433 -11.5529 -10.9403
   -10.8859 -10.6198 -10.5236  -9.8558  -9.6920  -9.3348  -9.1085  -8.6384
    -8.6213  -8.5489  -8.3916  -8.3773  -8.1578  -8.0925  -8.0730  -8.0376
    -7.6829  -7.6220  -7.4913  -7.4737  -7.3347  -7.1698  -7.0666  -6.8450
    -6.6199  -6.3802  -6.1746  -6.1554  -5.9470  -5.9261  -5.7809  -5.7327
    -5.4505  -5.3840  -5.1711  -5.0434  -4.4073  -4.3638  -4.0736  -3.7541
    -1.4232   0.1447   0.7926   1.0135   1.0600   1.1317   1.1997   1.2884
     1.4155   1.5900   1.6874   1.7989   1.8601   1.9111   1.9615   1.9949
     2.0324   2.1127   2.2021   2.2378   2.3050   2.3548

          k =-0.3333-0.3849 0.0000 ( 59291 PWs)   bands (ev):

   -68.6877 -68.6774 -40.3794 -40.2769 -40.1017 -40.0915 -40.0559 -40.0456
   -21.1113 -20.9137 -20.7170 -20.1557 -19.8030 -19.4634 -19.3143 -19.1701
   -19.0145 -18.7749 -18.6291 -18.5463 -18.1355 -18.0994 -17.9163 -17.7203
   -12.3458 -12.1100 -12.0432 -11.9074 -11.6799 -11.6549 -11.5520 -10.9402
   -10.8856 -10.6192 -10.5243  -9.8564  -9.6921  -9.3343  -9.1093  -8.6405
    -8.6202  -8.5506  -8.3886  -8.3698  -8.1593  -8.0978  -8.0610  -8.0508
    -7.6832  -7.6206  -7.4974  -7.4682  -7.3338  -7.1699  -7.0671  -6.8507
    -6.6181  -6.3750  -6.1633  -6.1571  -5.9554  -5.9251  -5.7811  -5.7392
    -5.4504  -5.3802  -5.1720  -5.0435  -4.4095  -4.3615  -4.0733  -3.7543
    -1.4310   0.2103   0.7798   1.0039   1.0593   1.1400   1.2135   1.2968
     1.3936   1.5066   1.6822   1.7750   1.8593   1.9039   1.9436   2.0103
     2.0611   2.0855   2.1458   2.2206   2.3178   2.3441

          k = 0.5000 0.0962 0.0000 ( 59291 PWs)   bands (ev):

   -68.6877 -68.6774 -40.3794 -40.2769 -40.1017 -40.0914 -40.0559 -40.0456
   -21.1105 -20.9160 -20.7153 -20.1558 -19.8012 -19.4652 -19.3187 -19.1670
   -19.0119 -18.7764 -18.6278 -18.5470 -18.1332 -18.1021 -17.9162 -17.7201
   -12.3452 -12.1119 -12.0410 -11.9084 -11.6902 -11.6433 -11.5529 -10.9403
   -10.8859 -10.6198 -10.5236  -9.8558  -9.6921  -9.3348  -9.1085  -8.6384
    -8.6213  -8.5490  -8.3916  -8.3773  -8.1578  -8.0925  -8.0730  -8.0376
    -7.6830  -7.6220  -7.4913  -7.4738  -7.3347  -7.1699  -7.0666  -6.8451
    -6.6198  -6.3802  -6.1746  -6.1553  -5.9470  -5.9261  -5.7810  -5.7328
    -5.4506  -5.3840  -5.1711  -5.0434  -4.4073  -4.3638  -4.0736  -3.7541
    -1.4232   0.1447   0.7926   1.0135   1.0600   1.1317   1.1997   1.2884
     1.4155   1.5900   1.6874   1.7989   1.8601   1.9111   1.9614   1.9949
     2.0323   2.1126   2.2020   2.2381   2.3049   2.3548

          k =-0.3333 0.3849 0.0000 ( 59291 PWs)   bands (ev):

   -68.6877 -68.6774 -40.3794 -40.2769 -40.1017 -40.0915 -40.0559 -40.0456
   -21.1113 -20.9137 -20.7170 -20.1557 -19.8030 -19.4634 -19.3143 -19.1701
   -19.0145 -18.7749 -18.6291 -18.5463 -18.1355 -18.0994 -17.9163 -17.7203
   -12.3458 -12.1100 -12.0432 -11.9074 -11.6799 -11.6549 -11.5519 -10.9402
   -10.8856 -10.6191 -10.5243  -9.8565  -9.6921  -9.3343  -9.1093  -8.6405
    -8.6202  -8.5506  -8.3887  -8.3698  -8.1593  -8.0978  -8.0609  -8.0508
    -7.6831  -7.6206  -7.4974  -7.4681  -7.3338  -7.1698  -7.0672  -6.8507
    -6.6182  -6.3750  -6.1633  -6.1571  -5.9554  -5.9252  -5.7810  -5.7392
    -5.4503  -5.3802  -5.1721  -5.0435  -4.4096  -4.3615  -4.0733  -3.7543
    -1.4310   0.2103   0.7798   1.0039   1.0593   1.1400   1.2135   1.2968
     1.3936   1.5066   1.6822   1.7750   1.8593   1.9037   1.9437   2.0105
     2.0610   2.0853   2.1457   2.2205   2.3186   2.3436

          k =-0.1667-0.0962 0.0000 ( 59226 PWs)   bands (ev):

   -68.6877 -68.6774 -40.3794 -40.2769 -40.1017 -40.0914 -40.0559 -40.0455
   -21.3101 -20.5319 -20.3438 -20.3347 -19.9861 -19.9762 -19.8031 -18.7268
   -18.7173 -18.3716 -18.3645 -18.3515 -18.2658 -18.2581 -18.0755 -18.0675
   -12.5058 -12.5001 -12.4062 -11.5801 -11.5739 -11.4249 -11.4183 -10.9244
   -10.9215  -9.9278  -9.9240  -9.6734  -9.3729  -9.3704  -9.2280  -9.2257
    -9.0405  -9.0384  -8.9058  -8.3217  -8.3186  -7.8995  -7.8973  -7.8600
    -7.8417  -7.7687  -7.5952  -7.5704  -7.1135  -7.0791  -6.9573  -6.8865
    -6.8833  -6.8412  -6.5299  -6.5258  -6.2557  -5.3308  -5.3027  -5.1410
    -5.0633  -4.7914  -4.7845  -4.7374  -4.6020  -4.5948  -4.3404  -4.3205
    -1.4644   0.4051   0.7979   0.9885   1.0806   1.1494   1.2115   1.3180
     1.4686   1.5368   1.6066   1.6912   1.7794   1.8604   1.8906   1.9362
     1.9807   2.0556   2.1288   2.1432   2.2503   2.3149

          k =-0.0000-0.1925 0.0000 ( 59226 PWs)   bands (ev):

   -68.6877 -68.6774 -40.3794 -40.2769 -40.1017 -40.0914 -40.0558 -40.0456
   -21.3102 -20.5276 -20.3495 -20.3368 -19.9836 -19.9722 -19.8062 -18.7263
   -18.7147 -18.3876 -18.3681 -18.3491 -18.2533 -18.2522 -18.0790 -18.0682
   -12.5076 -12.4985 -12.4061 -11.5819 -11.5736 -11.4246 -11.4158 -10.9257
   -10.9219  -9.9270  -9.9246  -9.6738  -9.3732  -9.3690  -9.2278  -9.2264
    -9.0403  -9.0389  -8.9063  -8.3214  -8.3182  -7.8987  -7.8970  -7.8505
    -7.8378  -7.7702  -7.6094  -7.5801  -7.0974  -7.0761  -6.9560  -6.8881
    -6.8831  -6.8496  -6.5303  -6.5247  -6.2562  -5.3247  -5.3029  -5.1412
    -5.0630  -4.8117  -4.7899  -4.7384  -4.5880  -4.5815  -4.3425  -4.3247
    -1.4713   0.5378   0.7620   0.9683   1.0925   1.1540   1.1989   1.2935
     1.4465   1.4836   1.5268   1.6210   1.7288   1.8434   1.9328   1.9382
     2.0626   2.0736   2.1585   2.1640   2.2000   2.3225

          k = 0.5000-0.8660 0.0000 ( 59292 PWs)   bands (ev):

   -68.6877 -68.6774 -40.3795 -40.2769 -40.1017 -40.0915 -40.0558 -40.0456
   -21.0460 -21.0438 -20.4681 -20.4593 -19.4245 -19.4155 -19.4109 -19.4053
   -18.9887 -18.9862 -18.3201 -18.3177 -18.3149 -18.3094 -17.7918 -17.7837
   -12.0675 -12.0643 -12.0620 -12.0592 -11.8779 -11.8702 -11.3269 -11.3257
   -10.2338 -10.2288 -10.1335 -10.1307 -10.1274 -10.1236  -8.5636  -8.5449
    -8.5442  -8.5433  -8.5418  -8.5318  -7.8629  -7.8612  -7.8570  -7.8552
    -7.8221  -7.8166  -7.7667  -7.7410  -7.4883  -7.4848  -6.6104  -6.6044
    -6.3332  -6.3131  -6.2954  -6.2839  -6.1877  -6.1852  -5.6945  -5.6877
    -5.5436  -5.5400  -4.7082  -4.6987  -4.6881  -4.6853  -3.8749  -3.8554
    -1.4231   0.1430   0.7920   1.0392   1.0693   1.1317   1.2817   1.4199
     1.5178   1.5358   1.5896   1.6957   1.7611   1.8724   1.9232   1.9505
     1.9883   2.0450   2.1631   2.2240   2.3155   2.3470

          k =-1.0000 0.0000 0.0000 ( 59292 PWs)   bands (ev):

   -68.6877 -68.6774 -40.3795 -40.2769 -40.1017 -40.0915 -40.0559 -40.0455
   -21.0693 -21.0179 -20.4720 -20.4595 -19.4206 -19.4166 -19.4165 -19.3975
   -19.0074 -18.9688 -18.3636 -18.3292 -18.2904 -18.2797 -17.7937 -17.7831
   -12.0989 -12.0782 -12.0382 -12.0340 -11.8797 -11.8691 -11.3472 -11.3074
   -10.2394 -10.2365 -10.1297 -10.1290 -10.1223 -10.1221  -8.6020  -8.5707
    -8.5551  -8.5268  -8.5164  -8.4874  -7.8721  -7.8663  -7.8580  -7.8578
    -7.8119  -7.8112  -7.7722  -7.7469  -7.5103  -7.4646  -6.6101  -6.6025
    -6.3314  -6.3120  -6.2968  -6.2719  -6.2048  -6.1706  -5.7192  -5.6672
    -5.5626  -5.5210  -4.7643  -4.7306  -4.6463  -4.6418  -3.8741  -3.8577
    -1.4533   0.4977   0.8132   0.9331   1.0453   1.1371   1.2020   1.2739
     1.3472   1.4949   1.5851   1.6420   1.6732   1.7946   1.8632   1.8885
     2.1304   2.1458   2.1649   2.1899   2.3302   2.3322

     the Fermi energy is    -1.1719 ev

!    total energy              =   -1133.82832341 Ry

     total all-electron energy =     -6753.504026 Ry
     estimated scf accuracy    <       0.00000003 Ry
     smearing contrib. (-TS)   =      -0.00000000 Ry
     internal energy E=F+TS    =   -1133.82832341 Ry

     The total energy is F=E-TS. E is the sum of the following terms:
     one-electron contribution =   -3953.88494059 Ry
     hartree contribution      =    2005.13187127 Ry
     xc contribution           =    -186.02142383 Ry
     ewald contribution        =    1360.32322649 Ry
     DFT-D3 Dispersion         =      -0.13380410 Ry
     one-center paw contrib.   =    -359.24325266 Ry

     total magnetization       =    10.00 Bohr mag/cell
     absolute magnetization    =    10.01 Bohr mag/cell

     convergence has been achieved in  14 iterations

     Writing output data file ./mytmp/Crdimer0.1405-0.0.save/
 
     init_run     :     34.39s CPU     47.93s WALL (       1 calls)
     electrons    :    478.22s CPU    513.08s WALL (       1 calls)

     Called by init_run:
     wfcinit      :     28.66s CPU     41.42s WALL (       1 calls)
     potinit      :      1.89s CPU      2.10s WALL (       1 calls)
     hinit0       :      1.94s CPU      2.24s WALL (       1 calls)

     Called by electrons:
     c_bands      :    381.65s CPU    406.77s WALL (      14 calls)
     sum_band     :     75.15s CPU     80.73s WALL (      14 calls)
     v_of_rho     :      4.62s CPU      5.09s WALL (      15 calls)
     newd         :      9.44s CPU     12.70s WALL (      15 calls)
     PAW_pot      :      6.85s CPU      7.51s WALL (      15 calls)
     mix_rho      :      0.97s CPU      1.00s WALL (      14 calls)

     Called by c_bands:
     init_us_2    :      5.01s CPU      5.07s WALL (     870 calls)
     cegterg      :    369.22s CPU    394.23s WALL (     420 calls)

     Called by *egterg:
     cdiaghg      :     24.04s CPU     38.53s WALL (    2641 calls)
     h_psi        :    250.68s CPU    271.19s WALL (    2671 calls)
     s_psi        :     26.74s CPU     26.89s WALL (    2671 calls)
     g_psi        :      0.68s CPU      0.72s WALL (    2221 calls)

     Called by h_psi:
     h_psi:calbec :     27.97s CPU     28.80s WALL (    2671 calls)
     vloc_psi     :    193.74s CPU    213.15s WALL (    2671 calls)
     add_vuspsi   :     26.88s CPU     27.11s WALL (    2671 calls)

     General routines
     calbec       :     37.32s CPU     38.34s WALL (    3091 calls)
     fft          :      4.26s CPU      5.21s WALL (     369 calls)
     ffts         :      0.12s CPU      0.12s WALL (      58 calls)
     fftw         :    199.31s CPU    218.72s WALL (  247872 calls)
     interpolate  :      0.41s CPU      0.44s WALL (      30 calls)
 
     Parallel routines
     fft_scatt_xy :     30.30s CPU     31.58s WALL (  248299 calls)
     fft_scatt_yz :     84.43s CPU     99.53s WALL (  248299 calls)
 
     PWSCF        :   8m34.69s CPU   9m25.22s WALL

 
   This run was terminated on:  11: 6: 4   2Apr2021            

=------------------------------------------------------------------------------=
   JOB DONE.
=------------------------------------------------------------------------------=
