
     Program PWSCF v.6.7MaX starts on  2Apr2021 at 12:27:30 

     This program is part of the open-source Quantum ESPRESSO suite
     for quantum simulation of materials; please cite
         "P. Giannozzi et al., J. Phys.:Condens. Matter 21 395502 (2009);
         "P. Giannozzi et al., J. Phys.:Condens. Matter 29 465901 (2017);
          URL http://www.quantum-espresso.org", 
     in publications or presentations arising from this work. More details at
     http://www.quantum-espresso.org/quote

     Parallel version (MPI), running on    48 processors

     MPI processes distributed on     1 nodes
     R & G space division:  proc/nbgrp/npool/nimage =      48
     Reading input from Crdimer0.141-0.4.scf.in

     Current dimensions of program PWSCF are:
     Max number of different atomic species (ntypx) = 10
     Max number of k-points (npk) =  40000
     Max angular momentum in pseudopotentials (lmaxx) =  3
     file N.pbe-n-kjpaw_psl.1.0.0.UPF: wavefunction(s)  2S renormalized
     file Cr.pbe-spn-kjpaw_psl.1.0.0.UPF: wavefunction(s)  3S 3P 3D renormalized
     file Cr.pbe-spn-kjpaw_psl.1.0.0.UPF: wavefunction(s)  3S 3P 3D renormalized

     --------------------------------------------
     Parameters for DFT-D3 Dispersion Correction:
     --------------------------------------------
       Reference C6 values for interpolation: 

         atom   Coordination number   C6
         B          0.000           214.36
         B          0.971           150.74
         B          1.944           106.23
         B          2.913            62.89
         B          4.586            56.06
         N          0.000            50.54
         N          0.994            44.25
         N          2.014            39.35
         N          2.990            31.16
         Cr1        0.000          1381.48
         Cr1        1.827           571.38
         Cr1       10.619           306.69
         Cr2        0.000          1381.48
         Cr2        1.827           571.38
         Cr2       10.619           306.69

       Values used:

         atom   Coordination number  R0_AB[au]  C6      C8
         B          3.337            3.039     62.89   2505.96
         B          3.336            3.039     62.89   2505.98
         B          3.336            3.039     62.89   2505.99
         B          3.335            3.039     62.89   2506.01
         B          3.354            3.039     62.88   2505.52
         B          3.335            3.039     62.89   2506.00
         N          3.135            2.478     31.22    688.69
         N          3.143            2.478     31.21    688.62
         N          3.135            2.478     31.22    688.68
         N          3.134            2.478     31.22    688.70
         N          3.152            2.478     31.21    688.54
         N          3.135            2.478     31.22    688.69
         N          3.147            2.478     31.21    688.58
         N          3.134            2.478     31.22    688.70
         N          3.134            2.478     31.22    688.70
         B          3.351            3.039     62.88   2505.60
         B          3.336            3.039     62.89   2505.98
         B          3.335            3.039     62.89   2506.00
         B          3.354            3.039     62.88   2505.52
         B          3.337            3.039     62.89   2505.96
         B          3.351            3.039     62.88   2505.60
         N          3.147            2.478     31.21    688.58
         B          3.336            3.039     62.89   2505.99
         B          3.356            3.039     62.88   2505.46
         B          3.336            3.039     62.89   2506.00
         N          3.135            2.478     31.22    688.69
         N          3.143            2.478     31.21    688.62
         N          3.134            2.478     31.22    688.70
         N          3.134            2.478     31.22    688.70
         N          3.135            2.478     31.22    688.68
         N          3.134            2.478     31.22    688.70
         B          3.336            3.039     62.89   2506.00
         Cr1        0.739            3.252   1307.08 120629.07
         Cr2        0.739            3.252   1307.08 120629.06

         Molecular C6 ( Ry / a.u.^6 ) =     78307.92


     Subspace diagonalization in iterative solution of the eigenvalue problem:
     one sub-group per band group will be used
     scalapack distributed-memory algorithm (size of sub-group:  6*  6 procs)

 
     Parallelization info
     --------------------
     sticks:   dense  smooth     PW     G-vecs:    dense   smooth      PW
     Min         235      98     26                36277     9874    1408
     Max         236      99     27                36282     9883    1425
     Sum       11311    4741   1285              1741401   474235   68095
 


     bravais-lattice index     =            4
     lattice parameter (alat)  =      18.9275  a.u.
     unit-cell volume          =   10553.3021 (a.u.)^3
     number of atoms/cell      =           34
     number of atomic types    =            4
     number of electrons       =       156.00
     number of Kohn-Sham states=           94
     kinetic-energy cutoff     =      48.0000  Ry
     charge density cutoff     =     457.0000  Ry
     scf convergence threshold =      1.0E-07
     mixing beta               =       0.5000
     number of iterations used =            8  plain     mixing
     Exchange-correlation= SLA  PW   PBX  PBC
                           (   1   4   3   4   0   0   0)

     celldm(1)=  18.927497  celldm(2)=   0.000000  celldm(3)=   1.797125
     celldm(4)=   0.000000  celldm(5)=   0.000000  celldm(6)=   0.000000

     crystal axes: (cart. coord. in units of alat)
               a(1) = (   1.000000   0.000000   0.000000 )  
               a(2) = (  -0.500000   0.866025   0.000000 )  
               a(3) = (   0.000000   0.000000   1.797125 )  

     reciprocal axes: (cart. coord. in units 2 pi/alat)
               b(1) = (  1.000000  0.577350  0.000000 )  
               b(2) = (  0.000000  1.154701  0.000000 )  
               b(3) = (  0.000000  0.000000  0.556444 )  


     PseudoPot. # 1 for B  read from file:
     /home/sf05/q-e-qe-6.7MaX-Release/pseudo/B.pbe-n-kjpaw_psl.1.0.0.UPF
     MD5 check sum: d9c678ba5d3b2fd7b74e61139c9288d8
     Pseudo is Projector augmented-wave + core cor, Zval =  3.0
     Generated using "atomic" code by A. Dal Corso  v.5.1.2
     Shape of augmentation charge: PSQ
     Using radial grid of 1059 points,  4 beta functions with: 
                l(1) =   0
                l(2) =   0
                l(3) =   1
                l(4) =   1
     Q(r) pseudized with 0 coefficients 


     PseudoPot. # 2 for N  read from file:
     /home/sf05/q-e-qe-6.7MaX-Release/pseudo/N.pbe-n-kjpaw_psl.1.0.0.UPF
     MD5 check sum: e0e4e94a9c4025c5b51bd7d8793849bd
     Pseudo is Projector augmented-wave + core cor, Zval =  5.0
     Generated using "atomic" code by A. Dal Corso  v.5.1.2
     Shape of augmentation charge: PSQ
     Using radial grid of 1085 points,  4 beta functions with: 
                l(1) =   0
                l(2) =   0
                l(3) =   1
                l(4) =   1
     Q(r) pseudized with 0 coefficients 


     PseudoPot. # 3 for Cr read from file:
     /home/sf05/q-e-qe-6.7MaX-Release/pseudo/Cr.pbe-spn-kjpaw_psl.1.0.0.UPF
     MD5 check sum: 198f1a2427a48552563eee314eba32ba
     Pseudo is Projector augmented-wave + core cor, Zval = 14.0
     Generated using &quot;atomic&quot; code by A. Dal Corso  v.6.3
     Shape of augmentation charge: PSQ
     Using radial grid of 1183 points,  6 beta functions with: 
                l(1) =   0
                l(2) =   0
                l(3) =   1
                l(4) =   1
                l(5) =   2
                l(6) =   2
     Q(r) pseudized with 0 coefficients 


     PseudoPot. # 4 for Cr read from file:
     /home/sf05/q-e-qe-6.7MaX-Release/pseudo/Cr.pbe-spn-kjpaw_psl.1.0.0.UPF
     MD5 check sum: 198f1a2427a48552563eee314eba32ba
     Pseudo is Projector augmented-wave + core cor, Zval = 14.0
     Generated using &quot;atomic&quot; code by A. Dal Corso  v.6.3
     Shape of augmentation charge: PSQ
     Using radial grid of 1183 points,  6 beta functions with: 
                l(1) =   0
                l(2) =   0
                l(3) =   1
                l(4) =   1
                l(5) =   2
                l(6) =   2
     Q(r) pseudized with 0 coefficients 


     atomic species   valence    mass     pseudopotential
        B              3.00    10.81100     B ( 1.00)
        N              5.00    14.00674     N ( 1.00)
        Cr1           14.00    51.99610     Cr( 1.00)
        Cr2           14.00    51.99610     Cr( 1.00)

     Starting magnetic structure 
     atomic species   magnetization
        B            0.000
        N            0.000
        Cr1          1.000
        Cr2          1.000

     No symmetry found



   Cartesian axes

     site n.     atom                  positions (alat units)
         1           B   tau(   1) = (  -0.1250000   0.2165064   0.8985623  )
         2           B   tau(   2) = (   0.3750000   0.6495191   0.8985623  )
         3           B   tau(   3) = (   0.2500000   0.0000000   0.8985623  )
         4           B   tau(   4) = (   0.7500000   0.0000000   0.8985623  )
         5           B   tau(   5) = (   0.1250000   0.2165064   0.8985623  )
         6           B   tau(   6) = (  -0.3750000   0.6495191   0.8985623  )
         7           N   tau(   7) = (   0.7500005   0.2886748   0.8985623  )
         8           N   tau(   8) = (   0.3750005   0.5051812   0.8985623  )
         9           N   tau(   9) = (   0.3750005   0.0721685   0.8985623  )
        10           N   tau(  10) = (   0.6250005   0.0721685   0.8985623  )
        11           N   tau(  11) = (   0.2500005   0.2886748   0.8985623  )
        12           N   tau(  12) = (   0.6250005   0.5051812   0.8985623  )
        13           N   tau(  13) = (   0.0000005   0.2886748   0.8985623  )
        14           N   tau(  14) = (   0.2500005   0.7216875   0.8985623  )
        15           N   tau(  15) = (  -0.2499995   0.7216875   0.8985623  )
        16           B   tau(  16) = (   0.0000000   0.4330127   0.8985623  )
        17           B   tau(  17) = (   0.1250000   0.6495191   0.8985623  )
        18           B   tau(  18) = (  -0.1250000   0.6495191   0.8985623  )
        19           B   tau(  19) = (   0.3750000   0.2165064   0.8985623  )
        20           B   tau(  20) = (   0.6250000   0.2165064   0.8985623  )
        21           B   tau(  21) = (   0.5000000   0.4330127   0.8985623  )
        22           N   tau(  22) = (   0.5000005   0.2886748   0.8985623  )
        23           B   tau(  23) = (  -0.2500000   0.4330127   0.8985623  )
        24           B   tau(  24) = (   0.2500000   0.4330127   0.8985623  )
        25           B   tau(  25) = (   0.5000000   0.0000000   0.8985623  )
        26           N   tau(  26) = (  -0.1249995   0.5051812   0.8985623  )
        27           N   tau(  27) = (   0.1250005   0.5051812   0.8985623  )
        28           N   tau(  28) = (   0.0000005   0.7216875   0.8985623  )
        29           N   tau(  29) = (   0.5000005   0.7216875   0.8985623  )
        30           N   tau(  30) = (   0.1250005   0.0721685   0.8985623  )
        31           N   tau(  31) = (   0.8750005   0.0721685   0.8985623  )
        32           B   tau(  32) = (   0.0000000   0.0000000   0.8985623  )
        33           Cr1 tau(  33) = (   0.3910000   0.3464102   1.2040735  )
        34           Cr2 tau(  34) = (   0.1090000   0.3464102   1.2040735  )

     number of k points=    15  Gaussian smearing, width (Ry)=  0.0000
                       cart. coord. in units 2pi/alat
        k(    1) = (   0.1666667   0.2886751   0.0000000), wk =   0.0740741
        k(    2) = (   0.1666667  -0.4811252   0.0000000), wk =   0.0740741
        k(    3) = (   0.1666667  -0.0962250   0.0000000), wk =   0.0740741
        k(    4) = (  -0.5000000  -0.8660254   0.0000000), wk =   0.0370370
        k(    5) = (  -0.1666667   0.2886751   0.0000000), wk =   0.0740741
        k(    6) = (   0.3333333   0.0000000   0.0000000), wk =   0.0740741
        k(    7) = (  -0.1666667  -0.4811252   0.0000000), wk =   0.0740741
        k(    8) = (   0.5000000  -0.0962250   0.0000000), wk =   0.0740741
        k(    9) = (  -0.3333333  -0.3849002   0.0000000), wk =   0.0740741
        k(   10) = (   0.5000000   0.0962250   0.0000000), wk =   0.0740741
        k(   11) = (  -0.3333333   0.3849002   0.0000000), wk =   0.0740741
        k(   12) = (  -0.1666667  -0.0962250   0.0000000), wk =   0.0740741
        k(   13) = (  -0.0000000  -0.1924501   0.0000000), wk =   0.0740741
        k(   14) = (   0.5000000  -0.8660254   0.0000000), wk =   0.0370370
        k(   15) = (  -1.0000000   0.0000000   0.0000000), wk =   0.0370370

     Dense  grid:  1741401 G-vectors     FFT dimensions: ( 135, 135, 240)

     Smooth grid:   474235 G-vectors     FFT dimensions: (  90,  90, 160)

     Estimated max dynamical RAM per process >     218.62 MB

     Estimated total dynamical RAM >      10.25 GB
     Generating pointlists ...
     new r_m :   0.0595 (alat units)  1.1269 (a.u.) for type    1
     new r_m :   0.0595 (alat units)  1.1269 (a.u.) for type    2
     new r_m :   0.1163 (alat units)  2.2017 (a.u.) for type    3
     new r_m :   0.1163 (alat units)  2.2017 (a.u.) for type    4

     Initial potential from superposition of free atoms

     starting charge  155.99382, renormalised to  156.00000

     negative rho (up, down):  6.715E-03 4.655E-04
     Starting wfcs are  148 randomized atomic wfcs
     Checking if some PAW data can be deallocated... 

     total cpu time spent up to now is       20.1 secs

     Self-consistent Calculation

     iteration #  1     ecut=    48.00 Ry     beta= 0.50
     Davidson diagonalization with overlap
     ethr =  1.00E-02,  avg # of iterations =  2.8

     negative rho (up, down):  4.901E-03 2.915E-03

     total cpu time spent up to now is       61.2 secs

     total energy              =   -1130.73461673 Ry
     estimated scf accuracy    <      11.36867035 Ry

     total magnetization       =    12.00 Bohr mag/cell
     absolute magnetization    =    12.12 Bohr mag/cell

     iteration #  2     ecut=    48.00 Ry     beta= 0.50
     Davidson diagonalization with overlap
     ethr =  7.29E-03,  avg # of iterations =  2.8

     negative rho (up, down):  8.861E-03 7.946E-03

     total cpu time spent up to now is       98.3 secs

     total energy              =   -1132.92990027 Ry
     estimated scf accuracy    <       3.75795629 Ry

     total magnetization       =    10.00 Bohr mag/cell
     absolute magnetization    =    10.08 Bohr mag/cell

     iteration #  3     ecut=    48.00 Ry     beta= 0.50
     Davidson diagonalization with overlap
     ethr =  2.41E-03,  avg # of iterations =  7.2

     negative rho (up, down):  4.102E-03 3.914E-03

     total cpu time spent up to now is      136.5 secs

     total energy              =   -1133.56411301 Ry
     estimated scf accuracy    <       0.84872868 Ry

     total magnetization       =    11.26 Bohr mag/cell
     absolute magnetization    =    11.32 Bohr mag/cell

     iteration #  4     ecut=    48.00 Ry     beta= 0.50
     Davidson diagonalization with overlap
     ethr =  5.44E-04,  avg # of iterations =  6.7

     negative rho (up, down):  7.321E-03 7.744E-03

     total cpu time spent up to now is      172.7 secs

     total energy              =   -1133.78298073 Ry
     estimated scf accuracy    <       0.45737123 Ry

     total magnetization       =    10.00 Bohr mag/cell
     absolute magnetization    =    10.02 Bohr mag/cell

     iteration #  5     ecut=    48.00 Ry     beta= 0.50
     Davidson diagonalization with overlap
     ethr =  2.93E-04,  avg # of iterations =  6.2

     negative rho (up, down):  4.560E-03 4.619E-03

     total cpu time spent up to now is      210.3 secs

     total energy              =   -1133.81548242 Ry
     estimated scf accuracy    <       0.04584510 Ry

     total magnetization       =    10.00 Bohr mag/cell
     absolute magnetization    =    10.02 Bohr mag/cell

     iteration #  6     ecut=    48.00 Ry     beta= 0.50
     Davidson diagonalization with overlap
     ethr =  2.94E-05,  avg # of iterations =  9.1

     negative rho (up, down):  3.725E-03 3.945E-03

     total cpu time spent up to now is      254.5 secs

     total energy              =   -1133.82298957 Ry
     estimated scf accuracy    <       0.03466897 Ry

     total magnetization       =    10.00 Bohr mag/cell
     absolute magnetization    =    10.02 Bohr mag/cell

     iteration #  7     ecut=    48.00 Ry     beta= 0.50
     Davidson diagonalization with overlap
     ethr =  2.22E-05,  avg # of iterations =  6.5

     negative rho (up, down):  3.377E-03 3.856E-03

     total cpu time spent up to now is      290.1 secs

     total energy              =   -1133.82828552 Ry
     estimated scf accuracy    <       0.00146801 Ry

     total magnetization       =    10.00 Bohr mag/cell
     absolute magnetization    =    10.02 Bohr mag/cell

     iteration #  8     ecut=    48.00 Ry     beta= 0.50
     Davidson diagonalization with overlap
     c_bands:  1 eigenvalues not converged
     ethr =  9.41E-07,  avg # of iterations =  8.2

     negative rho (up, down):  3.226E-03 3.771E-03

     total cpu time spent up to now is      334.4 secs

     total energy              =   -1133.82886645 Ry
     estimated scf accuracy    <       0.00029748 Ry

     total magnetization       =    10.00 Bohr mag/cell
     absolute magnetization    =    10.01 Bohr mag/cell

     iteration #  9     ecut=    48.00 Ry     beta= 0.50
     Davidson diagonalization with overlap
     ethr =  1.91E-07,  avg # of iterations =  2.5

     negative rho (up, down):  3.162E-03 3.765E-03

     total cpu time spent up to now is      365.3 secs

     total energy              =   -1133.82896316 Ry
     estimated scf accuracy    <       0.00007256 Ry

     total magnetization       =    10.00 Bohr mag/cell
     absolute magnetization    =    10.01 Bohr mag/cell

     iteration # 10     ecut=    48.00 Ry     beta= 0.50
     Davidson diagonalization with overlap
     ethr =  4.65E-08,  avg # of iterations =  4.3

     negative rho (up, down):  3.152E-03 3.780E-03

     total cpu time spent up to now is      404.5 secs

     total energy              =   -1133.82901897 Ry
     estimated scf accuracy    <       0.00001767 Ry

     total magnetization       =    10.00 Bohr mag/cell
     absolute magnetization    =    10.01 Bohr mag/cell

     iteration # 11     ecut=    48.00 Ry     beta= 0.50
     Davidson diagonalization with overlap
     ethr =  1.13E-08,  avg # of iterations =  4.2

     negative rho (up, down):  3.142E-03 3.789E-03

     total cpu time spent up to now is      439.6 secs

     total energy              =   -1133.82903598 Ry
     estimated scf accuracy    <       0.00000808 Ry

     total magnetization       =    10.00 Bohr mag/cell
     absolute magnetization    =    10.01 Bohr mag/cell

     iteration # 12     ecut=    48.00 Ry     beta= 0.50
     Davidson diagonalization with overlap
     ethr =  5.18E-09,  avg # of iterations =  4.2

     negative rho (up, down):  3.138E-03 3.799E-03

     total cpu time spent up to now is      471.3 secs

     total energy              =   -1133.82904132 Ry
     estimated scf accuracy    <       0.00000092 Ry

     total magnetization       =    10.00 Bohr mag/cell
     absolute magnetization    =    10.01 Bohr mag/cell

     iteration # 13     ecut=    48.00 Ry     beta= 0.50
     Davidson diagonalization with overlap
     ethr =  5.89E-10,  avg # of iterations =  5.1

     negative rho (up, down):  3.135E-03 3.801E-03

     total cpu time spent up to now is      506.1 secs

     total energy              =   -1133.82904334 Ry
     estimated scf accuracy    <       0.00000019 Ry

     total magnetization       =    10.00 Bohr mag/cell
     absolute magnetization    =    10.01 Bohr mag/cell

     iteration # 14     ecut=    48.00 Ry     beta= 0.50
     Davidson diagonalization with overlap
     ethr =  1.19E-10,  avg # of iterations =  4.7

     negative rho (up, down):  3.134E-03 3.802E-03
 
     Magnetic moment per site:
     atom:    1    charge:    0.8808    magn:    0.0008    constr:    0.0000
     atom:    2    charge:    0.8802    magn:    0.0006    constr:    0.0000
     atom:    3    charge:    0.8800    magn:    0.0001    constr:    0.0000
     atom:    4    charge:    0.8804    magn:    0.0001    constr:    0.0000
     atom:    5    charge:    0.8801    magn:    0.0002    constr:    0.0000
     atom:    6    charge:    0.8804    magn:    0.0001    constr:    0.0000
     atom:    7    charge:    2.8610    magn:    0.0003    constr:    0.0000
     atom:    8    charge:    2.8607    magn:    0.0044    constr:    0.0000
     atom:    9    charge:    2.8608    magn:    0.0016    constr:    0.0000
     atom:   10    charge:    2.8609    magn:    0.0004    constr:    0.0000
     atom:   11    charge:    2.8605    magn:    0.0073    constr:    0.0000
     atom:   12    charge:    2.8610    magn:    0.0008    constr:    0.0000
     atom:   13    charge:    2.8596    magn:    0.0052    constr:    0.0000
     atom:   14    charge:    2.8598    magn:    0.0003    constr:    0.0000
     atom:   15    charge:    2.8599    magn:    0.0000    constr:    0.0000
     atom:   16    charge:    0.8805    magn:   -0.0000    constr:    0.0000
     atom:   17    charge:    0.8799    magn:    0.0006    constr:    0.0000
     atom:   18    charge:    0.8800    magn:    0.0001    constr:    0.0000
     atom:   19    charge:    0.8796    magn:    0.0002    constr:    0.0000
     atom:   20    charge:    0.8802    magn:    0.0008    constr:    0.0000
     atom:   21    charge:    0.8802    magn:   -0.0000    constr:    0.0000
     atom:   22    charge:    2.8609    magn:    0.0052    constr:    0.0000
     atom:   23    charge:    0.8804    magn:    0.0001    constr:    0.0000
     atom:   24    charge:    0.8789    magn:   -0.0002    constr:    0.0000
     atom:   25    charge:    0.8799    magn:    0.0001    constr:    0.0000
     atom:   26    charge:    2.8599    magn:    0.0008    constr:    0.0000
     atom:   27    charge:    2.8596    magn:    0.0044    constr:    0.0000
     atom:   28    charge:    2.8598    magn:    0.0002    constr:    0.0000
     atom:   29    charge:    2.8596    magn:    0.0002    constr:    0.0000
     atom:   30    charge:    2.8595    magn:    0.0016    constr:    0.0000
     atom:   31    charge:    2.8596    magn:    0.0004    constr:    0.0000
     atom:   32    charge:    0.8802    magn:    0.0001    constr:    0.0000
     atom:   33    charge:   12.5073    magn:    4.2304    constr:    0.0000
     atom:   34    charge:   12.5072    magn:    4.2304    constr:    0.0000

     total cpu time spent up to now is      540.2 secs

     End of self-consistent calculation

 ------ SPIN UP ------------


          k = 0.1667 0.2887 0.0000 ( 59267 PWs)   bands (ev):

   -72.8795 -72.8710 -44.4316 -44.3481 -44.2823 -44.2741 -44.2523 -44.2438
   -21.2510 -20.6649 -20.6594 -20.1129 -20.0958 -19.5916 -19.5863 -19.1032
   -18.7019 -18.6951 -18.4655 -18.4499 -18.1987 -18.0892 -18.0808 -17.8531
   -12.4885 -12.2137 -12.2024 -11.8252 -11.8213 -11.6625 -11.1958 -11.1931
   -10.3960 -10.3715 -10.1217 -10.1185  -9.5929  -9.5920  -8.8437  -8.8291
    -8.8242  -8.7709  -8.7647  -8.6001  -8.2008  -8.0539  -8.0201  -7.8346
    -7.8297  -7.4425  -7.4406  -7.2903  -7.2566  -7.2123  -7.2101  -6.9685
    -6.9548  -6.5679  -6.5423  -6.1578  -6.1565  -5.8743  -5.4222  -5.2955
    -5.2815  -5.2040  -4.9215  -4.8977  -4.5091  -4.3598  -4.3428  -3.9825
    -2.8810  -2.0519  -1.9761  -1.8436  -1.6348  -1.5995  -1.4794  -1.4653
    -1.4083  -1.3634  -1.3063  -0.7090   0.6692   0.9570   1.0562   1.1618
     1.2748   1.4647   1.4977   1.5811   1.5999   1.7762

          k = 0.1667-0.4811 0.0000 ( 59291 PWs)   bands (ev):

   -72.8795 -72.8710 -44.4316 -44.3481 -44.2823 -44.2741 -44.2523 -44.2438
   -21.1210 -20.9154 -20.7271 -20.1649 -19.8081 -19.4704 -19.3204 -19.1790
   -19.0179 -18.7830 -18.6458 -18.5469 -18.1535 -18.0915 -17.9260 -17.7273
   -12.3529 -12.1178 -12.0484 -11.9101 -11.6845 -11.6624 -11.5565 -10.9455
   -10.8945 -10.6278 -10.5266  -9.8644  -9.6972  -9.3399  -9.1148  -8.6716
    -8.6270  -8.5572  -8.3926  -8.3696  -8.1653  -8.1267  -8.0672  -8.0537
    -7.6929  -7.6272  -7.4983  -7.4776  -7.3597  -7.1747  -7.0713  -6.8633
    -6.6259  -6.3920  -6.1797  -6.1615  -5.9760  -5.9330  -5.7876  -5.7477
    -5.4550  -5.4018  -5.2140  -5.0435  -4.4480  -4.3495  -4.0925  -3.7700
    -2.8781  -2.0519  -1.9762  -1.8400  -1.6339  -1.5992  -1.4824  -1.4659
    -1.4086  -1.3632  -1.3070  -0.7133   0.5794   0.9469   1.0801   1.1143
     1.2151   1.2366   1.3607   1.8392   1.9071   2.1237

          k = 0.1667-0.0962 0.0000 ( 59226 PWs)   bands (ev):

   -72.8795 -72.8710 -44.4316 -44.3481 -44.2823 -44.2741 -44.2523 -44.2437
   -21.3174 -20.5403 -20.3493 -20.3424 -19.9922 -19.9850 -19.8089 -18.7325
   -18.7274 -18.3818 -18.3668 -18.3617 -18.2763 -18.2609 -18.0805 -18.0745
   -12.5141 -12.5040 -12.4119 -11.5857 -11.5803 -11.4347 -11.4200 -10.9300
   -10.9276  -9.9325  -9.9308  -9.6799  -9.3817  -9.3736  -9.2338  -9.2321
    -9.0457  -9.0440  -8.9268  -8.3268  -8.3259  -7.9069  -7.9016  -7.8848
    -7.8489  -7.7741  -7.6117  -7.5855  -7.1374  -7.0962  -6.9634  -6.8917
    -6.8893  -6.8537  -6.5345  -6.5325  -6.2612  -5.3506  -5.3233  -5.1470
    -5.0691  -4.8137  -4.7944  -4.7605  -4.6229  -4.6027  -4.3559  -4.3345
    -2.8843  -2.0519  -1.9761  -1.8471  -1.6367  -1.5998  -1.4768  -1.4647
    -1.4080  -1.3638  -1.3058  -0.7044   0.7782   0.9287   1.0063   1.1815
     1.2675   1.3258   1.5725   1.5816   1.6980   1.9203

          k =-0.5000-0.8660 0.0000 ( 59292 PWs)   bands (ev):

   -72.8795 -72.8710 -44.4316 -44.3481 -44.2824 -44.2741 -44.2522 -44.2438
   -21.0548 -21.0499 -20.4734 -20.4676 -19.4337 -19.4270 -19.4147 -19.4104
   -18.9966 -18.9917 -18.3318 -18.3292 -18.3197 -18.3101 -17.7967 -17.7923
   -12.0764 -12.0728 -12.0675 -12.0603 -11.8823 -11.8770 -11.3333 -11.3311
   -10.2383 -10.2366 -10.1398 -10.1351 -10.1335 -10.1299  -8.5912  -8.5537
    -8.5516  -8.5497  -8.5482  -8.5426  -7.8682  -7.8663  -7.8648  -7.8617
    -7.8260  -7.8240  -7.7832  -7.7575  -7.4950  -7.4887  -6.6145  -6.6125
    -6.3611  -6.3253  -6.3222  -6.2955  -6.1946  -6.1902  -5.7090  -5.7052
    -5.5504  -5.5445  -4.7300  -4.7144  -4.7127  -4.6905  -3.8897  -3.8716
    -2.8665  -2.0502  -1.9766  -1.8422  -1.6343  -1.6004  -1.4827  -1.4670
    -1.4133  -1.3675  -1.3056  -0.8314   0.7601   1.0551   1.0930   1.1797
     1.4243   1.5392   1.5878   1.6134   1.6462   1.7712

          k =-0.1667 0.2887 0.0000 ( 59267 PWs)   bands (ev):

   -72.8795 -72.8710 -44.4316 -44.3481 -44.2823 -44.2741 -44.2523 -44.2438
   -21.2510 -20.6649 -20.6594 -20.1129 -20.0958 -19.5917 -19.5862 -19.1033
   -18.7020 -18.6950 -18.4655 -18.4499 -18.1986 -18.0893 -18.0807 -17.8531
   -12.4885 -12.2137 -12.2024 -11.8253 -11.8213 -11.6626 -11.1959 -11.1930
   -10.3960 -10.3715 -10.1218 -10.1185  -9.5929  -9.5920  -8.8437  -8.8290
    -8.8241  -8.7710  -8.7647  -8.6001  -8.2009  -8.0539  -8.0201  -7.8346
    -7.8296  -7.4425  -7.4406  -7.2903  -7.2566  -7.2123  -7.2100  -6.9686
    -6.9548  -6.5679  -6.5423  -6.1578  -6.1565  -5.8743  -5.4223  -5.2955
    -5.2815  -5.2039  -4.9215  -4.8977  -4.5092  -4.3598  -4.3428  -3.9824
    -2.8810  -2.0519  -1.9761  -1.8436  -1.6348  -1.5995  -1.4794  -1.4653
    -1.4083  -1.3634  -1.3063  -0.7090   0.6692   0.9571   1.0562   1.1618
     1.2747   1.4647   1.4976   1.5811   1.5999   1.7763

          k = 0.3333 0.0000 0.0000 ( 59267 PWs)   bands (ev):

   -72.8795 -72.8710 -44.4316 -44.3481 -44.2824 -44.2741 -44.2522 -44.2438
   -21.2505 -20.6917 -20.6325 -20.1129 -20.0941 -19.6189 -19.5610 -19.1055
   -18.7193 -18.6722 -18.4677 -18.4498 -18.1939 -18.1130 -18.0642 -17.8522
   -12.4874 -12.2154 -12.2011 -11.8353 -11.8141 -11.6606 -11.2146 -11.1741
   -10.3952 -10.3711 -10.1359 -10.1053  -9.5996  -9.5839  -8.8459  -8.8310
    -8.8172  -8.7934  -8.7436  -8.6008  -8.2031  -8.1062  -7.9671  -7.8329
    -7.8288  -7.4490  -7.4340  -7.2959  -7.2455  -7.2223  -7.1995  -6.9699
    -6.9553  -6.6224  -6.4951  -6.1606  -6.1527  -5.8815  -5.4223  -5.3128
    -5.2519  -5.2043  -4.9322  -4.8898  -4.5000  -4.3906  -4.3255  -3.9811
    -2.8736  -2.0506  -1.9764  -1.8451  -1.6362  -1.6003  -1.4796  -1.4657
    -1.4107  -1.3664  -1.3054  -0.7911   0.7954   1.0416   1.1610   1.2402
     1.2987   1.4479   1.5118   1.5596   1.5895   1.7672

          k =-0.1667-0.4811 0.0000 ( 59291 PWs)   bands (ev):

   -72.8795 -72.8710 -44.4316 -44.3481 -44.2823 -44.2741 -44.2523 -44.2438
   -21.1210 -20.9154 -20.7271 -20.1649 -19.8081 -19.4704 -19.3204 -19.1790
   -19.0179 -18.7830 -18.6458 -18.5469 -18.1535 -18.0915 -17.9260 -17.7273
   -12.3529 -12.1178 -12.0484 -11.9101 -11.6845 -11.6624 -11.5565 -10.9455
   -10.8945 -10.6278 -10.5265  -9.8643  -9.6972  -9.3399  -9.1149  -8.6716
    -8.6269  -8.5572  -8.3925  -8.3696  -8.1653  -8.1267  -8.0672  -8.0538
    -7.6929  -7.6272  -7.4982  -7.4776  -7.3597  -7.1746  -7.0713  -6.8633
    -6.6259  -6.3920  -6.1797  -6.1616  -5.9760  -5.9329  -5.7875  -5.7477
    -5.4551  -5.4018  -5.2140  -5.0435  -4.4480  -4.3495  -4.0925  -3.7700
    -2.8781  -2.0519  -1.9762  -1.8400  -1.6339  -1.5992  -1.4824  -1.4659
    -1.4086  -1.3632  -1.3070  -0.7133   0.5794   0.9469   1.0801   1.1143
     1.2151   1.2366   1.3608   1.8392   1.9072   2.1251

          k = 0.5000-0.0962 0.0000 ( 59291 PWs)   bands (ev):

   -72.8795 -72.8710 -44.4316 -44.3481 -44.2823 -44.2741 -44.2522 -44.2438
   -21.1178 -20.9242 -20.7213 -20.1630 -19.8082 -19.4721 -19.3277 -19.1730
   -19.0191 -18.7835 -18.6347 -18.5539 -18.1406 -18.1097 -17.9223 -17.7270
   -12.3508 -12.1187 -12.0463 -11.9150 -11.6984 -11.6464 -11.5586 -10.9466
   -10.8915 -10.6254 -10.5295  -9.8622  -9.6977  -9.3408  -9.1142  -8.6602
    -8.6278  -8.5547  -8.4026  -8.3972  -8.1630  -8.1057  -8.0812  -8.0407
    -7.6884  -7.6279  -7.4971  -7.4791  -7.3531  -7.1759  -7.0724  -6.8631
    -6.6264  -6.3997  -6.1998  -6.1610  -5.9595  -5.9324  -5.7866  -5.7504
    -5.4563  -5.4012  -5.1888  -5.0594  -4.4233  -4.3816  -4.0879  -3.7698
    -2.8666  -2.0502  -1.9766  -1.8423  -1.6348  -1.6004  -1.4827  -1.4670
    -1.4132  -1.3675  -1.3056  -0.8312   0.7448   1.0367   1.1142   1.1812
     1.2823   1.3360   1.5297   1.7617   1.8450   1.8828

          k =-0.3333-0.3849 0.0000 ( 59291 PWs)   bands (ev):

   -72.8795 -72.8710 -44.4316 -44.3481 -44.2823 -44.2741 -44.2523 -44.2438
   -21.1189 -20.9211 -20.7235 -20.1628 -19.8103 -19.4703 -19.3220 -19.1767
   -19.0226 -18.7813 -18.6363 -18.5532 -18.1432 -18.1065 -17.9225 -17.7273
   -12.3522 -12.1155 -12.0494 -11.9129 -11.6862 -11.6604 -11.5576 -10.9462
   -10.8918 -10.6249 -10.5300  -9.8625  -9.6977  -9.3408  -9.1153  -8.6639
    -8.6261  -8.5568  -8.3947  -8.3901  -8.1647  -8.1136  -8.0669  -8.0566
    -7.6889  -7.6260  -7.5046  -7.4721  -7.3519  -7.1760  -7.0730  -6.8710
    -6.6243  -6.3925  -6.1821  -6.1637  -5.9715  -5.9309  -5.7868  -5.7615
    -5.4561  -5.3948  -5.1896  -5.0602  -4.4268  -4.3779  -4.0874  -3.7700
    -2.8704  -2.0509  -1.9764  -1.8415  -1.6342  -1.6000  -1.4825  -1.4668
    -1.4119  -1.3660  -1.3061  -0.7952   0.6877   1.0396   1.1088   1.1515
     1.2325   1.3549   1.3827   1.8212   1.8955   1.9240

          k = 0.5000 0.0962 0.0000 ( 59291 PWs)   bands (ev):

   -72.8795 -72.8710 -44.4316 -44.3481 -44.2823 -44.2741 -44.2522 -44.2438
   -21.1178 -20.9242 -20.7213 -20.1630 -19.8082 -19.4721 -19.3277 -19.1730
   -19.0191 -18.7835 -18.6347 -18.5540 -18.1406 -18.1097 -17.9223 -17.7270
   -12.3508 -12.1187 -12.0463 -11.9150 -11.6984 -11.6464 -11.5586 -10.9466
   -10.8914 -10.6254 -10.5295  -9.8622  -9.6977  -9.3408  -9.1142  -8.6602
    -8.6278  -8.5548  -8.4027  -8.3972  -8.1630  -8.1057  -8.0811  -8.0407
    -7.6884  -7.6279  -7.4971  -7.4792  -7.3531  -7.1760  -7.0723  -6.8631
    -6.6263  -6.3997  -6.1998  -6.1609  -5.9595  -5.9324  -5.7867  -5.7504
    -5.4564  -5.4012  -5.1888  -5.0594  -4.4233  -4.3816  -4.0880  -3.7698
    -2.8666  -2.0502  -1.9766  -1.8423  -1.6348  -1.6004  -1.4827  -1.4670
    -1.4132  -1.3675  -1.3056  -0.8312   0.7448   1.0367   1.1142   1.1812
     1.2823   1.3360   1.5297   1.7617   1.8450   1.8828

          k =-0.3333 0.3849 0.0000 ( 59291 PWs)   bands (ev):

   -72.8795 -72.8710 -44.4316 -44.3481 -44.2823 -44.2741 -44.2523 -44.2438
   -21.1189 -20.9211 -20.7235 -20.1628 -19.8103 -19.4703 -19.3220 -19.1767
   -19.0226 -18.7813 -18.6363 -18.5532 -18.1431 -18.1065 -17.9225 -17.7273
   -12.3521 -12.1155 -12.0494 -11.9129 -11.6863 -11.6604 -11.5576 -10.9463
   -10.8917 -10.6248 -10.5300  -9.8625  -9.6977  -9.3408  -9.1153  -8.6639
    -8.6261  -8.5568  -8.3947  -8.3901  -8.1648  -8.1136  -8.0669  -8.0565
    -7.6889  -7.6260  -7.5046  -7.4720  -7.3519  -7.1760  -7.0731  -6.8710
    -6.6243  -6.3925  -6.1821  -6.1637  -5.9715  -5.9310  -5.7868  -5.7615
    -5.4560  -5.3948  -5.1896  -5.0602  -4.4268  -4.3779  -4.0874  -3.7700
    -2.8704  -2.0509  -1.9764  -1.8415  -1.6342  -1.6000  -1.4825  -1.4668
    -1.4119  -1.3660  -1.3061  -0.7952   0.6877   1.0396   1.1088   1.1515
     1.2325   1.3549   1.3827   1.8211   1.8955   1.9239

          k =-0.1667-0.0962 0.0000 ( 59226 PWs)   bands (ev):

   -72.8795 -72.8710 -44.4316 -44.3481 -44.2823 -44.2741 -44.2523 -44.2437
   -21.3174 -20.5403 -20.3493 -20.3424 -19.9922 -19.9850 -19.8089 -18.7325
   -18.7274 -18.3819 -18.3668 -18.3617 -18.2763 -18.2609 -18.0805 -18.0745
   -12.5141 -12.5040 -12.4119 -11.5857 -11.5803 -11.4347 -11.4200 -10.9300
   -10.9276  -9.9325  -9.9309  -9.6799  -9.3817  -9.3736  -9.2338  -9.2322
    -9.0457  -9.0440  -8.9268  -8.3268  -8.3260  -7.9069  -7.9016  -7.8848
    -7.8488  -7.7741  -7.6117  -7.5855  -7.1374  -7.0962  -6.9634  -6.8917
    -6.8893  -6.8537  -6.5345  -6.5325  -6.2613  -5.3506  -5.3233  -5.1469
    -5.0692  -4.8137  -4.7944  -4.7605  -4.6229  -4.6027  -4.3559  -4.3345
    -2.8843  -2.0519  -1.9761  -1.8471  -1.6367  -1.5998  -1.4768  -1.4647
    -1.4080  -1.3638  -1.3058  -0.7044   0.7782   0.9287   1.0063   1.1815
     1.2675   1.3259   1.5726   1.5817   1.6980   1.9203

          k =-0.0000-0.1925 0.0000 ( 59226 PWs)   bands (ev):

   -72.8795 -72.8710 -44.4316 -44.3481 -44.2824 -44.2741 -44.2522 -44.2438
   -21.3175 -20.5345 -20.3622 -20.3396 -19.9930 -19.9756 -19.8133 -18.7375
   -18.7180 -18.4071 -18.3695 -18.3550 -18.2572 -18.2571 -18.0892 -18.0719
   -12.5161 -12.5028 -12.4111 -11.5903 -11.5766 -11.4338 -11.4185 -10.9324
   -10.9270  -9.9356  -9.9281  -9.6799  -9.3818  -9.3715  -9.2353  -9.2318
    -9.0454  -9.0449  -8.9275  -8.3289  -8.3230  -7.9069  -7.9009  -7.8654
    -7.8466  -7.7761  -7.6415  -7.5918  -7.1176  -7.0872  -6.9617  -6.8956
    -6.8872  -6.8669  -6.5375  -6.5285  -6.2620  -5.3489  -5.3143  -5.1473
    -5.0688  -4.8641  -4.7898  -4.7520  -4.5969  -4.5914  -4.3656  -4.3354
    -2.8879  -2.0525  -1.9759  -1.8463  -1.6361  -1.5993  -1.4769  -1.4646
    -1.4070  -1.3623  -1.3061  -0.6565   0.6913   0.8555   1.0027   1.1552
     1.2193   1.3802   1.5557   1.6048   1.6904   1.9650

          k = 0.5000-0.8660 0.0000 ( 59292 PWs)   bands (ev):

   -72.8795 -72.8710 -44.4316 -44.3481 -44.2824 -44.2741 -44.2522 -44.2438
   -21.0548 -21.0498 -20.4734 -20.4676 -19.4337 -19.4270 -19.4147 -19.4104
   -18.9967 -18.9916 -18.3320 -18.3291 -18.3197 -18.3100 -17.7967 -17.7923
   -12.0765 -12.0727 -12.0676 -12.0602 -11.8823 -11.8770 -11.3333 -11.3310
   -10.2383 -10.2366 -10.1398 -10.1351 -10.1335 -10.1299  -8.5911  -8.5537
    -8.5517  -8.5497  -8.5482  -8.5425  -7.8681  -7.8663  -7.8648  -7.8617
    -7.8261  -7.8241  -7.7831  -7.7575  -7.4951  -7.4888  -6.6144  -6.6125
    -6.3610  -6.3253  -6.3222  -6.2955  -6.1946  -6.1900  -5.7090  -5.7052
    -5.5505  -5.5446  -4.7301  -4.7143  -4.7126  -4.6906  -3.8897  -3.8716
    -2.8665  -2.0502  -1.9766  -1.8422  -1.6343  -1.6004  -1.4827  -1.4670
    -1.4133  -1.3675  -1.3056  -0.8314   0.7601   1.0551   1.0930   1.1797
     1.4243   1.5391   1.5878   1.6134   1.6462   1.7711

          k =-1.0000 0.0000 0.0000 ( 59292 PWs)   bands (ev):

   -72.8795 -72.8710 -44.4317 -44.3481 -44.2824 -44.2741 -44.2523 -44.2437
   -21.0804 -21.0210 -20.4838 -20.4625 -19.4454 -19.4128 -19.4121 -19.4083
   -19.0192 -18.9719 -18.3806 -18.3336 -18.2955 -18.2812 -17.8045 -17.7867
   -12.1162 -12.0770 -12.0467 -12.0335 -11.8882 -11.8714 -11.3549 -11.3109
   -10.2538 -10.2384 -10.1372 -10.1358 -10.1272 -10.1234  -8.6357  -8.5825
    -8.5607  -8.5291  -8.5192  -8.4930  -7.8846  -7.8773  -7.8639  -7.8554
    -7.8204  -7.8153  -7.7975  -7.7583  -7.5193  -7.4672  -6.6185  -6.6053
    -6.3711  -6.3173  -6.3042  -6.2892  -6.2137  -6.1740  -5.7417  -5.6813
    -5.5715  -5.5239  -4.8237  -4.7158  -4.6722  -4.6391  -3.8966  -3.8670
    -2.8819  -2.0522  -1.9761  -1.8392  -1.6337  -1.5987  -1.4824  -1.4654
    -1.4067  -1.3618  -1.3073  -0.6662   0.5371   0.8395   1.0987   1.1134
     1.1474   1.4670   1.5529   1.6225   1.6353   1.9354

 ------ SPIN DOWN ----------


          k = 0.1667 0.2887 0.0000 ( 59267 PWs)   bands (ev):

   -68.6821 -68.6723 -40.3650 -40.2663 -40.1075 -40.0977 -40.0468 -40.0365
   -21.2472 -20.6618 -20.6550 -20.1087 -20.0924 -19.5889 -19.5815 -19.0993
   -18.6984 -18.6899 -18.4612 -18.4463 -18.1940 -18.0857 -18.0770 -17.8490
   -12.4860 -12.2109 -12.2002 -11.8230 -11.8190 -11.6604 -11.1937 -11.1901
   -10.3932 -10.3690 -10.1194 -10.1153  -9.5906  -9.5894  -8.8319  -8.8214
    -8.8183  -8.7690  -8.7619  -8.5978  -8.1986  -8.0303  -8.0104  -7.8320
    -7.8274  -7.4394  -7.4374  -7.2712  -7.2437  -7.2104  -7.2072  -6.9659
    -6.9526  -6.5470  -6.5341  -6.1552  -6.1539  -5.8588  -5.4192  -5.2769
    -5.2664  -5.2013  -4.9068  -4.8857  -4.4933  -4.3454  -4.3329  -3.9690
    -1.4434   0.3932   0.8708   1.0569   1.1014   1.1746   1.2600   1.3232
     1.4109   1.4950   1.5278   1.5713   1.6409   1.7242   1.8736   1.9956
     2.0464   2.1280   2.1495   2.1969   2.2610   2.3346

          k = 0.1667-0.4811 0.0000 ( 59291 PWs)   bands (ev):

   -68.6821 -68.6723 -40.3650 -40.2663 -40.1075 -40.0977 -40.0468 -40.0365
   -21.1169 -20.9122 -20.7231 -20.1610 -19.8044 -19.4666 -19.3167 -19.1748
   -19.0141 -18.7792 -18.6405 -18.5438 -18.1478 -18.0893 -17.9217 -17.7231
   -12.3502 -12.1153 -12.0462 -11.9078 -11.6826 -11.6597 -11.5541 -10.9429
   -10.8916 -10.6250 -10.5242  -9.8613  -9.6947  -9.3370  -9.1124  -8.6487
    -8.6244  -8.5541  -8.3904  -8.3580  -8.1629  -8.1097  -8.0650  -8.0512
    -7.6901  -7.6247  -7.4958  -7.4753  -7.3424  -7.1716  -7.0690  -6.8479
    -6.6227  -6.3770  -6.1643  -6.1590  -5.9608  -5.9298  -5.7849  -5.7331
    -5.4525  -5.3871  -5.1924  -5.0346  -4.4285  -4.3428  -4.0789  -3.7569
    -1.4340   0.3817   0.8441   1.0221   1.0628   1.1258   1.1891   1.2549
     1.3068   1.4567   1.5412   1.7398   1.7924   1.8298   1.8901   2.0831
     2.1286   2.1454   2.1762   2.2180   2.2824   2.3234

          k = 0.1667-0.0962 0.0000 ( 59226 PWs)   bands (ev):

   -68.6821 -68.6723 -40.3650 -40.2663 -40.1075 -40.0976 -40.0468 -40.0365
   -21.3136 -20.5360 -20.3458 -20.3390 -19.9877 -19.9814 -19.8057 -18.7279
   -18.7234 -18.3774 -18.3632 -18.3575 -18.2719 -18.2568 -18.0766 -18.0713
   -12.5114 -12.5018 -12.4096 -11.5831 -11.5781 -11.4319 -11.4179 -10.9273
   -10.9252  -9.9298  -9.9286  -9.6770  -9.3791  -9.3712  -9.2308  -9.2293
    -9.0434  -9.0416  -8.9086  -8.3237  -8.3229  -7.9040  -7.8993  -7.8636
    -7.8449  -7.7718  -7.5955  -7.5751  -7.1133  -7.0852  -6.9608  -6.8892
    -6.8871  -6.8434  -6.5318  -6.5302  -6.2587  -5.3293  -5.3105  -5.1442
    -5.0663  -4.7979  -4.7795  -4.7460  -4.6091  -4.5907  -4.3401  -4.3251
    -1.4528   0.4071   0.8909   1.0191   1.0812   1.1519   1.1818   1.3392
     1.4328   1.5111   1.5908   1.6506   1.7801   1.8244   1.8966   1.9253
     2.0315   2.0735   2.1315   2.1616   2.2201   2.3420

          k =-0.5000-0.8660 0.0000 ( 59292 PWs)   bands (ev):

   -68.6821 -68.6723 -40.3650 -40.2664 -40.1075 -40.0977 -40.0467 -40.0365
   -21.0519 -21.0450 -20.4698 -20.4641 -19.4289 -19.4228 -19.4108 -19.4072
   -18.9942 -18.9866 -18.3269 -18.3252 -18.3185 -18.3037 -17.7924 -17.7885
   -12.0730 -12.0707 -12.0662 -12.0571 -11.8800 -11.8751 -11.3312 -11.3281
   -10.2357 -10.2343 -10.1366 -10.1323 -10.1309 -10.1274  -8.5636  -8.5503
    -8.5488  -8.5470  -8.5412  -8.5384  -7.8656  -7.8638  -7.8622  -7.8594
    -7.8222  -7.8209  -7.7665  -7.7465  -7.4934  -7.4858  -6.6115  -6.6101
    -6.3345  -6.3110  -6.3058  -6.2857  -6.1924  -6.1867  -5.6959  -5.6916
    -5.5486  -5.5411  -4.7119  -4.7026  -4.6901  -4.6863  -3.8736  -3.8617
    -1.4108   0.1458   0.8637   1.0228   1.1055   1.1565   1.2593   1.3971
     1.4666   1.5386   1.5858   1.7053   1.7394   1.8887   1.9239   1.9351
     1.9951   2.0596   2.1882   2.2415   2.2960   2.3585

          k =-0.1667 0.2887 0.0000 ( 59267 PWs)   bands (ev):

   -68.6821 -68.6723 -40.3650 -40.2663 -40.1075 -40.0977 -40.0468 -40.0365
   -21.2472 -20.6619 -20.6550 -20.1087 -20.0924 -19.5889 -19.5815 -19.0993
   -18.6985 -18.6898 -18.4613 -18.4462 -18.1940 -18.0858 -18.0770 -17.8490
   -12.4860 -12.2109 -12.2002 -11.8230 -11.8190 -11.6604 -11.1937 -11.1900
   -10.3932 -10.3690 -10.1195 -10.1153  -9.5906  -9.5893  -8.8319  -8.8213
    -8.8183  -8.7691  -8.7619  -8.5978  -8.1986  -8.0303  -8.0104  -7.8320
    -7.8273  -7.4394  -7.4374  -7.2712  -7.2437  -7.2104  -7.2071  -6.9660
    -6.9527  -6.5470  -6.5341  -6.1552  -6.1539  -5.8588  -5.4193  -5.2769
    -5.2664  -5.2012  -4.9068  -4.8856  -4.4933  -4.3454  -4.3329  -3.9689
    -1.4434   0.3932   0.8709   1.0569   1.1014   1.1747   1.2600   1.3232
     1.4109   1.4950   1.5278   1.5713   1.6410   1.7242   1.8736   1.9956
     2.0466   2.1284   2.1496   2.1970   2.2611   2.3347

          k = 0.3333 0.0000 0.0000 ( 59267 PWs)   bands (ev):

   -68.6821 -68.6723 -40.3650 -40.2664 -40.1075 -40.0976 -40.0468 -40.0365
   -21.2467 -20.6861 -20.6306 -20.1087 -20.0910 -19.6131 -19.5590 -19.1013
   -18.7132 -18.6704 -18.4630 -18.4462 -18.1900 -18.1064 -18.0623 -17.8482
   -12.4851 -12.2119 -12.1995 -11.8323 -11.8123 -11.6585 -11.2112 -11.1724
   -10.3923 -10.3688 -10.1318 -10.1038  -9.5967  -9.5820  -8.8338  -8.8248
    -8.8109  -8.7899  -8.7424  -8.5985  -8.2004  -8.0774  -7.9630  -7.8306
    -7.8265  -7.4449  -7.4318  -7.2744  -7.2363  -7.2193  -7.1979  -6.9669
    -6.9533  -6.5960  -6.4906  -6.1578  -6.1505  -5.8640  -5.4192  -5.2929
    -5.2413  -5.2016  -4.9153  -4.8795  -4.4862  -4.3718  -4.3165  -3.9681
    -1.4286   0.2259   0.9011   1.0405   1.1043   1.1868   1.2255   1.4315
     1.4512   1.4953   1.5487   1.6251   1.7884   1.8646   1.9002   1.9271
     2.0279   2.0786   2.1533   2.1918   2.2816   2.3705

          k =-0.1667-0.4811 0.0000 ( 59291 PWs)   bands (ev):

   -68.6821 -68.6723 -40.3650 -40.2663 -40.1075 -40.0977 -40.0468 -40.0365
   -21.1169 -20.9122 -20.7231 -20.1610 -19.8044 -19.4666 -19.3167 -19.1748
   -19.0141 -18.7792 -18.6405 -18.5438 -18.1478 -18.0893 -17.9217 -17.7231
   -12.3503 -12.1153 -12.0462 -11.9078 -11.6826 -11.6598 -11.5541 -10.9429
   -10.8916 -10.6250 -10.5241  -9.8613  -9.6947  -9.3370  -9.1124  -8.6487
    -8.6244  -8.5541  -8.3903  -8.3580  -8.1628  -8.1097  -8.0650  -8.0513
    -7.6901  -7.6248  -7.4957  -7.4753  -7.3424  -7.1716  -7.0690  -6.8479
    -6.6227  -6.3771  -6.1643  -6.1590  -5.9608  -5.9298  -5.7848  -5.7331
    -5.4526  -5.3871  -5.1924  -5.0346  -4.4285  -4.3428  -4.0789  -3.7569
    -1.4340   0.3817   0.8441   1.0222   1.0627   1.1258   1.1891   1.2549
     1.3068   1.4567   1.5412   1.7398   1.7925   1.8298   1.8901   2.0831
     2.1287   2.1455   2.1764   2.2183   2.2827   2.3237

          k = 0.5000-0.0962 0.0000 ( 59291 PWs)   bands (ev):

   -68.6821 -68.6723 -40.3650 -40.2664 -40.1075 -40.0977 -40.0468 -40.0365
   -21.1140 -20.9199 -20.7181 -20.1593 -19.8045 -19.4681 -19.3230 -19.1697
   -19.0151 -18.7795 -18.6311 -18.5498 -18.1368 -18.1047 -17.9187 -17.7229
   -12.3485 -12.1160 -12.0442 -11.9122 -11.6953 -11.6450 -11.5561 -10.9439
   -10.8889 -10.6229 -10.5268  -9.8593  -9.6952  -9.3379  -9.1118  -8.6405
    -8.6251  -8.5521  -8.3948  -8.3814  -8.1608  -8.0947  -8.0777  -8.0394
    -7.6861  -7.6254  -7.4947  -7.4767  -7.3375  -7.1728  -7.0699  -6.8478
    -6.6231  -6.3822  -6.1792  -6.1585  -5.9493  -5.9293  -5.7840  -5.7348
    -5.4537  -5.3870  -5.1737  -5.0462  -4.4089  -4.3675  -4.0756  -3.7568
    -1.4109   0.1476   0.8586   1.0204   1.0985   1.1264   1.1966   1.2746
     1.3567   1.6105   1.7099   1.7532   1.8336   1.9093   1.9564   1.9910
     2.0636   2.1468   2.2089   2.2406   2.2893   2.3504

          k =-0.3333-0.3849 0.0000 ( 59291 PWs)   bands (ev):

   -68.6821 -68.6723 -40.3650 -40.2664 -40.1075 -40.0977 -40.0468 -40.0365
   -21.1150 -20.9172 -20.7200 -20.1591 -19.8063 -19.4665 -19.3180 -19.1729
   -19.0181 -18.7776 -18.6323 -18.5492 -18.1389 -18.1021 -17.9188 -17.7231
   -12.3497 -12.1133 -12.0470 -11.9105 -11.6841 -11.6579 -11.5552 -10.9435
   -10.8891 -10.6224 -10.5273  -9.8596  -9.6953  -9.3378  -9.1127  -8.6431
    -8.6237  -8.5538  -8.3919  -8.3729  -8.1624  -8.1004  -8.0648  -8.0536
    -7.6866  -7.6236  -7.5015  -7.4705  -7.3367  -7.1729  -7.0704  -6.8534
    -6.6212  -6.3772  -6.1663  -6.1606  -5.9577  -5.9281  -5.7843  -5.7431
    -5.4535  -5.3826  -5.1746  -5.0462  -4.4118  -4.3645  -4.0753  -3.7570
    -1.4188   0.2134   0.8508   1.0178   1.0809   1.1553   1.1993   1.2673
     1.3413   1.5209   1.6850   1.7727   1.8405   1.8811   1.9541   2.0244
     2.0625   2.0891   2.1743   2.2230   2.3012   2.3268

          k = 0.5000 0.0962 0.0000 ( 59291 PWs)   bands (ev):

   -68.6821 -68.6723 -40.3650 -40.2664 -40.1075 -40.0977 -40.0468 -40.0365
   -21.1140 -20.9199 -20.7181 -20.1593 -19.8045 -19.4681 -19.3230 -19.1697
   -19.0151 -18.7794 -18.6311 -18.5498 -18.1368 -18.1047 -17.9186 -17.7229
   -12.3485 -12.1160 -12.0442 -11.9123 -11.6953 -11.6450 -11.5561 -10.9438
   -10.8889 -10.6229 -10.5269  -9.8593  -9.6953  -9.3379  -9.1118  -8.6405
    -8.6251  -8.5521  -8.3948  -8.3814  -8.1608  -8.0947  -8.0777  -8.0394
    -7.6862  -7.6254  -7.4947  -7.4768  -7.3375  -7.1729  -7.0698  -6.8478
    -6.6230  -6.3822  -6.1792  -6.1584  -5.9493  -5.9292  -5.7841  -5.7348
    -5.4537  -5.3870  -5.1737  -5.0462  -4.4089  -4.3675  -4.0756  -3.7568
    -1.4109   0.1476   0.8586   1.0204   1.0985   1.1264   1.1966   1.2746
     1.3567   1.6105   1.7099   1.7531   1.8336   1.9093   1.9563   1.9910
     2.0636   2.1467   2.2089   2.2406   2.2893   2.3505

          k =-0.3333 0.3849 0.0000 ( 59291 PWs)   bands (ev):

   -68.6821 -68.6723 -40.3650 -40.2664 -40.1075 -40.0977 -40.0468 -40.0365
   -21.1150 -20.9172 -20.7200 -20.1591 -19.8063 -19.4665 -19.3180 -19.1729
   -19.0181 -18.7776 -18.6323 -18.5492 -18.1389 -18.1021 -17.9188 -17.7231
   -12.3496 -12.1133 -12.0470 -11.9105 -11.6841 -11.6579 -11.5551 -10.9436
   -10.8891 -10.6224 -10.5273  -9.8597  -9.6953  -9.3378  -9.1127  -8.6431
    -8.6237  -8.5537  -8.3919  -8.3729  -8.1624  -8.1004  -8.0649  -8.0536
    -7.6866  -7.6236  -7.5015  -7.4704  -7.3367  -7.1729  -7.0705  -6.8534
    -6.6213  -6.3772  -6.1663  -6.1607  -5.9577  -5.9282  -5.7842  -5.7431
    -5.4534  -5.3826  -5.1746  -5.0463  -4.4119  -4.3645  -4.0752  -3.7570
    -1.4188   0.2134   0.8508   1.0178   1.0809   1.1553   1.1994   1.2673
     1.3413   1.5209   1.6850   1.7727   1.8405   1.8811   1.9541   2.0244
     2.0625   2.0891   2.1742   2.2230   2.3012   2.3268

          k =-0.1667-0.0962 0.0000 ( 59226 PWs)   bands (ev):

   -68.6821 -68.6723 -40.3650 -40.2663 -40.1075 -40.0976 -40.0468 -40.0365
   -21.3136 -20.5360 -20.3458 -20.3391 -19.9877 -19.9814 -19.8057 -18.7279
   -18.7234 -18.3774 -18.3632 -18.3575 -18.2719 -18.2567 -18.0766 -18.0713
   -12.5114 -12.5018 -12.4096 -11.5831 -11.5781 -11.4319 -11.4179 -10.9273
   -10.9252  -9.9299  -9.9286  -9.6769  -9.3791  -9.3712  -9.2308  -9.2294
    -9.0434  -9.0416  -8.9086  -8.3237  -8.3230  -7.9040  -7.8992  -7.8636
    -7.8449  -7.7719  -7.5955  -7.5751  -7.1133  -7.0852  -6.9608  -6.8891
    -6.8871  -6.8434  -6.5318  -6.5302  -6.2588  -5.3293  -5.3105  -5.1441
    -5.0664  -4.7979  -4.7795  -4.7460  -4.6091  -4.5906  -4.3401  -4.3251
    -1.4528   0.4071   0.8909   1.0191   1.0812   1.1518   1.1818   1.3392
     1.4329   1.5111   1.5909   1.6505   1.7800   1.8244   1.8966   1.9253
     2.0316   2.0734   2.1313   2.1617   2.2200   2.3415

          k =-0.0000-0.1925 0.0000 ( 59226 PWs)   bands (ev):

   -68.6821 -68.6723 -40.3650 -40.2663 -40.1075 -40.0977 -40.0468 -40.0365
   -21.3137 -20.5309 -20.3575 -20.3360 -19.9892 -19.9725 -19.8094 -18.7330
   -18.7144 -18.3998 -18.3653 -18.3511 -18.2553 -18.2539 -18.0848 -18.0681
   -12.5127 -12.5013 -12.4088 -11.5876 -11.5745 -11.4306 -11.4168 -10.9296
   -10.9245  -9.9330  -9.9257  -9.6771  -9.3794  -9.3692  -9.2322  -9.2288
    -9.0430  -9.0426  -8.9090  -8.3259  -8.3200  -7.9045  -7.8986  -7.8520
    -7.8403  -7.7736  -7.6180  -7.5785  -7.1026  -7.0752  -6.9593  -6.8929
    -6.8849  -6.8530  -6.5350  -6.5262  -6.2594  -5.3311  -5.3009  -5.1444
    -5.0661  -4.8373  -4.7751  -4.7387  -4.5907  -4.5816  -4.3499  -4.3229
    -1.4597   0.5334   0.8689   1.0007   1.0847   1.1463   1.1840   1.3185
     1.3743   1.4698   1.5254   1.5988   1.7456   1.8241   1.8883   1.9805
     2.0432   2.0713   2.1234   2.1720   2.2228   2.2973

          k = 0.5000-0.8660 0.0000 ( 59292 PWs)   bands (ev):

   -68.6821 -68.6723 -40.3650 -40.2664 -40.1075 -40.0977 -40.0467 -40.0365
   -21.0520 -21.0449 -20.4698 -20.4641 -19.4289 -19.4229 -19.4108 -19.4071
   -18.9943 -18.9865 -18.3271 -18.3251 -18.3186 -18.3036 -17.7923 -17.7885
   -12.0731 -12.0706 -12.0663 -12.0570 -11.8800 -11.8751 -11.3312 -11.3280
   -10.2357 -10.2344 -10.1367 -10.1323 -10.1309 -10.1274  -8.5636  -8.5503
    -8.5488  -8.5469  -8.5412  -8.5383  -7.8656  -7.8638  -7.8622  -7.8594
    -7.8223  -7.8209  -7.7665  -7.7465  -7.4935  -7.4858  -6.6115  -6.6101
    -6.3345  -6.3110  -6.3058  -6.2856  -6.1924  -6.1865  -5.6959  -5.6916
    -5.5487  -5.5412  -4.7120  -4.7025  -4.6900  -4.6863  -3.8736  -3.8617
    -1.4108   0.1458   0.8637   1.0228   1.1055   1.1565   1.2593   1.3971
     1.4666   1.5386   1.5857   1.7053   1.7393   1.8887   1.9238   1.9351
     1.9951   2.0596   2.1883   2.2422   2.2958   2.3595

          k =-1.0000 0.0000 0.0000 ( 59292 PWs)   bands (ev):

   -68.6821 -68.6723 -40.3650 -40.2664 -40.1075 -40.0977 -40.0468 -40.0365
   -21.0749 -21.0191 -20.4793 -20.4591 -19.4404 -19.4094 -19.4088 -19.4049
   -19.0131 -18.9701 -18.3722 -18.3284 -18.2932 -18.2807 -17.7999 -17.7828
   -12.1106 -12.0752 -12.0454 -12.0325 -11.8858 -11.8696 -11.3514 -11.3093
   -10.2500 -10.2354 -10.1345 -10.1330 -10.1247 -10.1216  -8.6056  -8.5784
    -8.5573  -8.5278  -8.5185  -8.4890  -7.8807  -7.8743  -7.8611  -7.8532
    -7.8138  -7.8133  -7.7802  -7.7454  -7.5156  -7.4661  -6.6158  -6.6032
    -6.3474  -6.3001  -6.2932  -6.2806  -6.2096  -6.1720  -5.7224  -5.6707
    -5.5672  -5.5228  -4.7926  -4.6991  -4.6642  -4.6379  -3.8818  -3.8551
    -1.4413   0.4995   0.8477   1.0274   1.0541   1.1755   1.2047   1.2625
     1.3325   1.3505   1.6160   1.6373   1.6807   1.7937   1.8026   1.8803
     2.1220   2.1559   2.1701   2.2094   2.3167   2.3321

     the Fermi energy is    -1.1569 ev

!    total energy              =   -1133.82904384 Ry

     total all-electron energy =     -6753.504747 Ry
     estimated scf accuracy    <       0.00000007 Ry
     smearing contrib. (-TS)   =      -0.00000000 Ry
     internal energy E=F+TS    =   -1133.82904384 Ry

     The total energy is F=E-TS. E is the sum of the following terms:
     one-electron contribution =   -3953.33536089 Ry
     hartree contribution      =    2004.84240725 Ry
     xc contribution           =    -186.02056407 Ry
     ewald contribution        =    1360.06193500 Ry
     DFT-D3 Dispersion         =      -0.13451578 Ry
     one-center paw contrib.   =    -359.24294536 Ry

     total magnetization       =    10.00 Bohr mag/cell
     absolute magnetization    =    10.01 Bohr mag/cell

     convergence has been achieved in  14 iterations

     Writing output data file ./mytmp/Crdimer0.141-0.4.save/
 
     init_run     :     18.65s CPU     19.75s WALL (       1 calls)
     electrons    :    487.14s CPU    520.27s WALL (       1 calls)

     Called by init_run:
     wfcinit      :     13.87s CPU     14.55s WALL (       1 calls)
     potinit      :      1.52s CPU      1.60s WALL (       1 calls)
     hinit0       :      1.53s CPU      1.62s WALL (       1 calls)

     Called by electrons:
     c_bands      :    390.03s CPU    414.52s WALL (      14 calls)
     sum_band     :     75.11s CPU     80.38s WALL (      14 calls)
     v_of_rho     :      4.57s CPU      4.94s WALL (      15 calls)
     newd         :      9.38s CPU     12.43s WALL (      15 calls)
     PAW_pot      :      7.38s CPU      7.45s WALL (      15 calls)
     mix_rho      :      0.99s CPU      1.01s WALL (      14 calls)

     Called by c_bands:
     init_us_2    :      5.02s CPU      5.06s WALL (     870 calls)
     cegterg      :    377.65s CPU    402.07s WALL (     420 calls)

     Called by *egterg:
     cdiaghg      :     24.26s CPU     38.75s WALL (    2656 calls)
     h_psi        :    243.89s CPU    253.10s WALL (    2686 calls)
     s_psi        :     27.10s CPU     27.18s WALL (    2686 calls)
     g_psi        :      0.72s CPU      0.74s WALL (    2236 calls)

     Called by h_psi:
     h_psi:calbec :     28.36s CPU     28.94s WALL (    2686 calls)
     vloc_psi     :    186.15s CPU    194.64s WALL (    2686 calls)
     add_vuspsi   :     27.24s CPU     27.37s WALL (    2686 calls)

     General routines
     calbec       :     37.75s CPU     38.51s WALL (    3106 calls)
     fft          :      4.29s CPU      5.26s WALL (     369 calls)
     ffts         :      0.12s CPU      0.12s WALL (      58 calls)
     fftw         :    191.98s CPU    200.48s WALL (  251582 calls)
     interpolate  :      0.42s CPU      0.44s WALL (      30 calls)
 
     Parallel routines
     fft_scatt_xy :     30.69s CPU     31.84s WALL (  252009 calls)
     fft_scatt_yz :     76.05s CPU     80.91s WALL (  252009 calls)
 
     PWSCF        :   8m27.85s CPU   9m 4.15s WALL

 
   This run was terminated on:  12:36:34   2Apr2021            

=------------------------------------------------------------------------------=
   JOB DONE.
=------------------------------------------------------------------------------=
