
     Program PWSCF v.6.7MaX starts on  2Apr2021 at 12:54:25 

     This program is part of the open-source Quantum ESPRESSO suite
     for quantum simulation of materials; please cite
         "P. Giannozzi et al., J. Phys.:Condens. Matter 21 395502 (2009);
         "P. Giannozzi et al., J. Phys.:Condens. Matter 29 465901 (2017);
          URL http://www.quantum-espresso.org", 
     in publications or presentations arising from this work. More details at
     http://www.quantum-espresso.org/quote

     Parallel version (MPI), running on    48 processors

     MPI processes distributed on     1 nodes
     R & G space division:  proc/nbgrp/npool/nimage =      48
     Reading input from Crdimer0.1415-0.1.scf.in

     Current dimensions of program PWSCF are:
     Max number of different atomic species (ntypx) = 10
     Max number of k-points (npk) =  40000
     Max angular momentum in pseudopotentials (lmaxx) =  3
     file N.pbe-n-kjpaw_psl.1.0.0.UPF: wavefunction(s)  2S renormalized
     file Cr.pbe-spn-kjpaw_psl.1.0.0.UPF: wavefunction(s)  3S 3P 3D renormalized
     file Cr.pbe-spn-kjpaw_psl.1.0.0.UPF: wavefunction(s)  3S 3P 3D renormalized

     --------------------------------------------
     Parameters for DFT-D3 Dispersion Correction:
     --------------------------------------------
       Reference C6 values for interpolation: 

         atom   Coordination number   C6
         B          0.000           214.36
         B          0.971           150.74
         B          1.944           106.23
         B          2.913            62.89
         B          4.586            56.06
         N          0.000            50.54
         N          0.994            44.25
         N          2.014            39.35
         N          2.990            31.16
         Cr1        0.000          1381.48
         Cr1        1.827           571.38
         Cr1       10.619           306.69
         Cr2        0.000          1381.48
         Cr2        1.827           571.38
         Cr2       10.619           306.69

       Values used:

         atom   Coordination number  R0_AB[au]  C6      C8
         B          3.337            3.039     62.89   2505.96
         B          3.335            3.039     62.89   2506.00
         B          3.356            3.039     62.88   2505.47
         B          3.336            3.039     62.89   2505.99
         B          3.354            3.039     62.88   2505.53
         B          3.336            3.039     62.89   2505.98
         N          3.134            2.478     31.22    688.70
         N          3.134            2.478     31.22    688.70
         N          3.167            2.478     31.21    688.42
         N          3.136            2.478     31.22    688.68
         N          3.138            2.478     31.22    688.66
         N          3.134            2.478     31.22    688.70
         N          3.137            2.478     31.22    688.67
         N          3.134            2.478     31.22    688.70
         N          3.137            2.478     31.22    688.67
         B          3.336            3.039     62.89   2506.00
         B          3.335            3.039     62.89   2506.00
         B          3.336            3.039     62.89   2505.98
         B          3.354            3.039     62.88   2505.53
         B          3.337            3.039     62.89   2505.96
         B          3.336            3.039     62.89   2506.00
         N          3.137            2.478     31.22    688.67
         B          3.335            3.039     62.89   2506.01
         B          3.336            3.039     62.89   2505.99
         B          3.351            3.039     62.88   2505.60
         N          3.134            2.478     31.22    688.70
         N          3.134            2.478     31.22    688.70
         N          3.136            2.478     31.22    688.68
         N          3.136            2.478     31.22    688.68
         N          3.167            2.478     31.21    688.42
         N          3.136            2.478     31.22    688.68
         B          3.351            3.039     62.88   2505.60
         Cr1        0.735            3.252   1311.07 120996.48
         Cr2        0.735            3.252   1311.07 120996.48

         Molecular C6 ( Ry / a.u.^6 ) =     78353.95


     Subspace diagonalization in iterative solution of the eigenvalue problem:
     one sub-group per band group will be used
     scalapack distributed-memory algorithm (size of sub-group:  6*  6 procs)

 
     Parallelization info
     --------------------
     sticks:   dense  smooth     PW     G-vecs:    dense   smooth      PW
     Min         235      98     26                36277     9874    1408
     Max         236      99     27                36282     9883    1425
     Sum       11311    4741   1285              1741401   474235   68095
 


     bravais-lattice index     =            4
     lattice parameter (alat)  =      18.9275  a.u.
     unit-cell volume          =   10553.3021 (a.u.)^3
     number of atoms/cell      =           34
     number of atomic types    =            4
     number of electrons       =       156.00
     number of Kohn-Sham states=           94
     kinetic-energy cutoff     =      48.0000  Ry
     charge density cutoff     =     457.0000  Ry
     scf convergence threshold =      1.0E-07
     mixing beta               =       0.5000
     number of iterations used =            8  plain     mixing
     Exchange-correlation= SLA  PW   PBX  PBC
                           (   1   4   3   4   0   0   0)

     celldm(1)=  18.927497  celldm(2)=   0.000000  celldm(3)=   1.797125
     celldm(4)=   0.000000  celldm(5)=   0.000000  celldm(6)=   0.000000

     crystal axes: (cart. coord. in units of alat)
               a(1) = (   1.000000   0.000000   0.000000 )  
               a(2) = (  -0.500000   0.866025   0.000000 )  
               a(3) = (   0.000000   0.000000   1.797125 )  

     reciprocal axes: (cart. coord. in units 2 pi/alat)
               b(1) = (  1.000000  0.577350  0.000000 )  
               b(2) = (  0.000000  1.154701  0.000000 )  
               b(3) = (  0.000000  0.000000  0.556444 )  


     PseudoPot. # 1 for B  read from file:
     /home/sf05/q-e-qe-6.7MaX-Release/pseudo/B.pbe-n-kjpaw_psl.1.0.0.UPF
     MD5 check sum: d9c678ba5d3b2fd7b74e61139c9288d8
     Pseudo is Projector augmented-wave + core cor, Zval =  3.0
     Generated using "atomic" code by A. Dal Corso  v.5.1.2
     Shape of augmentation charge: PSQ
     Using radial grid of 1059 points,  4 beta functions with: 
                l(1) =   0
                l(2) =   0
                l(3) =   1
                l(4) =   1
     Q(r) pseudized with 0 coefficients 


     PseudoPot. # 2 for N  read from file:
     /home/sf05/q-e-qe-6.7MaX-Release/pseudo/N.pbe-n-kjpaw_psl.1.0.0.UPF
     MD5 check sum: e0e4e94a9c4025c5b51bd7d8793849bd
     Pseudo is Projector augmented-wave + core cor, Zval =  5.0
     Generated using "atomic" code by A. Dal Corso  v.5.1.2
     Shape of augmentation charge: PSQ
     Using radial grid of 1085 points,  4 beta functions with: 
                l(1) =   0
                l(2) =   0
                l(3) =   1
                l(4) =   1
     Q(r) pseudized with 0 coefficients 


     PseudoPot. # 3 for Cr read from file:
     /home/sf05/q-e-qe-6.7MaX-Release/pseudo/Cr.pbe-spn-kjpaw_psl.1.0.0.UPF
     MD5 check sum: 198f1a2427a48552563eee314eba32ba
     Pseudo is Projector augmented-wave + core cor, Zval = 14.0
     Generated using &quot;atomic&quot; code by A. Dal Corso  v.6.3
     Shape of augmentation charge: PSQ
     Using radial grid of 1183 points,  6 beta functions with: 
                l(1) =   0
                l(2) =   0
                l(3) =   1
                l(4) =   1
                l(5) =   2
                l(6) =   2
     Q(r) pseudized with 0 coefficients 


     PseudoPot. # 4 for Cr read from file:
     /home/sf05/q-e-qe-6.7MaX-Release/pseudo/Cr.pbe-spn-kjpaw_psl.1.0.0.UPF
     MD5 check sum: 198f1a2427a48552563eee314eba32ba
     Pseudo is Projector augmented-wave + core cor, Zval = 14.0
     Generated using &quot;atomic&quot; code by A. Dal Corso  v.6.3
     Shape of augmentation charge: PSQ
     Using radial grid of 1183 points,  6 beta functions with: 
                l(1) =   0
                l(2) =   0
                l(3) =   1
                l(4) =   1
                l(5) =   2
                l(6) =   2
     Q(r) pseudized with 0 coefficients 


     atomic species   valence    mass     pseudopotential
        B              3.00    10.81100     B ( 1.00)
        N              5.00    14.00674     N ( 1.00)
        Cr1           14.00    51.99610     Cr( 1.00)
        Cr2           14.00    51.99610     Cr( 1.00)

     Starting magnetic structure 
     atomic species   magnetization
        B            0.000
        N            0.000
        Cr1          1.000
        Cr2          1.000

     No symmetry found



   Cartesian axes

     site n.     atom                  positions (alat units)
         1           B   tau(   1) = (  -0.1250000   0.2165064   0.8985623  )
         2           B   tau(   2) = (   0.3750000   0.6495191   0.8985623  )
         3           B   tau(   3) = (   0.2500000   0.0000000   0.8985623  )
         4           B   tau(   4) = (   0.7500000   0.0000000   0.8985623  )
         5           B   tau(   5) = (   0.1250000   0.2165064   0.8985623  )
         6           B   tau(   6) = (  -0.3750000   0.6495191   0.8985623  )
         7           N   tau(   7) = (   0.7500005   0.2886748   0.8985623  )
         8           N   tau(   8) = (   0.3750005   0.5051812   0.8985623  )
         9           N   tau(   9) = (   0.3750005   0.0721685   0.8985623  )
        10           N   tau(  10) = (   0.6250005   0.0721685   0.8985623  )
        11           N   tau(  11) = (   0.2500005   0.2886748   0.8985623  )
        12           N   tau(  12) = (   0.6250005   0.5051812   0.8985623  )
        13           N   tau(  13) = (   0.0000005   0.2886748   0.8985623  )
        14           N   tau(  14) = (   0.2500005   0.7216875   0.8985623  )
        15           N   tau(  15) = (  -0.2499995   0.7216875   0.8985623  )
        16           B   tau(  16) = (   0.0000000   0.4330127   0.8985623  )
        17           B   tau(  17) = (   0.1250000   0.6495191   0.8985623  )
        18           B   tau(  18) = (  -0.1250000   0.6495191   0.8985623  )
        19           B   tau(  19) = (   0.3750000   0.2165064   0.8985623  )
        20           B   tau(  20) = (   0.6250000   0.2165064   0.8985623  )
        21           B   tau(  21) = (   0.5000000   0.4330127   0.8985623  )
        22           N   tau(  22) = (   0.5000005   0.2886748   0.8985623  )
        23           B   tau(  23) = (  -0.2500000   0.4330127   0.8985623  )
        24           B   tau(  24) = (   0.2500000   0.4330127   0.8985623  )
        25           B   tau(  25) = (   0.5000000   0.0000000   0.8985623  )
        26           N   tau(  26) = (  -0.1249995   0.5051812   0.8985623  )
        27           N   tau(  27) = (   0.1250005   0.5051812   0.8985623  )
        28           N   tau(  28) = (   0.0000005   0.7216875   0.8985623  )
        29           N   tau(  29) = (   0.5000005   0.7216875   0.8985623  )
        30           N   tau(  30) = (   0.1250005   0.0721685   0.8985623  )
        31           N   tau(  31) = (   0.8750005   0.0721685   0.8985623  )
        32           B   tau(  32) = (   0.0000000   0.0000000   0.8985623  )
        33           Cr1 tau(  33) = (   0.3915000   0.0866025   1.2040735  )
        34           Cr2 tau(  34) = (   0.1085000   0.0866025   1.2040735  )

     number of k points=    15  Gaussian smearing, width (Ry)=  0.0000
                       cart. coord. in units 2pi/alat
        k(    1) = (   0.1666667   0.2886751   0.0000000), wk =   0.0740741
        k(    2) = (   0.1666667  -0.4811252   0.0000000), wk =   0.0740741
        k(    3) = (   0.1666667  -0.0962250   0.0000000), wk =   0.0740741
        k(    4) = (  -0.5000000  -0.8660254   0.0000000), wk =   0.0370370
        k(    5) = (  -0.1666667   0.2886751   0.0000000), wk =   0.0740741
        k(    6) = (   0.3333333   0.0000000   0.0000000), wk =   0.0740741
        k(    7) = (  -0.1666667  -0.4811252   0.0000000), wk =   0.0740741
        k(    8) = (   0.5000000  -0.0962250   0.0000000), wk =   0.0740741
        k(    9) = (  -0.3333333  -0.3849002   0.0000000), wk =   0.0740741
        k(   10) = (   0.5000000   0.0962250   0.0000000), wk =   0.0740741
        k(   11) = (  -0.3333333   0.3849002   0.0000000), wk =   0.0740741
        k(   12) = (  -0.1666667  -0.0962250   0.0000000), wk =   0.0740741
        k(   13) = (  -0.0000000  -0.1924501   0.0000000), wk =   0.0740741
        k(   14) = (   0.5000000  -0.8660254   0.0000000), wk =   0.0370370
        k(   15) = (  -1.0000000   0.0000000   0.0000000), wk =   0.0370370

     Dense  grid:  1741401 G-vectors     FFT dimensions: ( 135, 135, 240)

     Smooth grid:   474235 G-vectors     FFT dimensions: (  90,  90, 160)

     Estimated max dynamical RAM per process >     218.62 MB

     Estimated total dynamical RAM >      10.25 GB
     Generating pointlists ...
     new r_m :   0.0595 (alat units)  1.1269 (a.u.) for type    1
     new r_m :   0.0595 (alat units)  1.1269 (a.u.) for type    2
     new r_m :   0.1167 (alat units)  2.2095 (a.u.) for type    3
     new r_m :   0.1167 (alat units)  2.2095 (a.u.) for type    4

     Initial potential from superposition of free atoms

     starting charge  155.99382, renormalised to  156.00000

     negative rho (up, down):  6.709E-03 4.655E-04
     Starting wfcs are  148 randomized atomic wfcs
     Checking if some PAW data can be deallocated... 

     total cpu time spent up to now is       20.0 secs

     Self-consistent Calculation

     iteration #  1     ecut=    48.00 Ry     beta= 0.50
     Davidson diagonalization with overlap
     ethr =  1.00E-02,  avg # of iterations =  2.8

     negative rho (up, down):  4.891E-03 2.906E-03

     total cpu time spent up to now is       59.8 secs

     total energy              =   -1130.73962722 Ry
     estimated scf accuracy    <      11.35518529 Ry

     total magnetization       =    12.00 Bohr mag/cell
     absolute magnetization    =    12.16 Bohr mag/cell

     iteration #  2     ecut=    48.00 Ry     beta= 0.50
     Davidson diagonalization with overlap
     ethr =  7.28E-03,  avg # of iterations =  2.7

     negative rho (up, down):  1.080E-02 1.011E-02

     total cpu time spent up to now is       97.0 secs

     total energy              =   -1132.49870114 Ry
     estimated scf accuracy    <       4.79086382 Ry

     total magnetization       =     9.11 Bohr mag/cell
     absolute magnetization    =     9.54 Bohr mag/cell

     iteration #  3     ecut=    48.00 Ry     beta= 0.50
     Davidson diagonalization with overlap
     ethr =  3.07E-03,  avg # of iterations =  7.6

     negative rho (up, down):  7.198E-03 7.176E-03

     total cpu time spent up to now is      138.3 secs

     total energy              =   -1133.49967055 Ry
     estimated scf accuracy    <       1.38106230 Ry

     total magnetization       =    10.00 Bohr mag/cell
     absolute magnetization    =    10.20 Bohr mag/cell

     iteration #  4     ecut=    48.00 Ry     beta= 0.50
     Davidson diagonalization with overlap
     ethr =  8.85E-04,  avg # of iterations =  5.8

     negative rho (up, down):  6.403E-03 5.758E-03

     total cpu time spent up to now is      173.1 secs

     total energy              =   -1133.80576516 Ry
     estimated scf accuracy    <       0.26939412 Ry

     total magnetization       =    10.00 Bohr mag/cell
     absolute magnetization    =    10.06 Bohr mag/cell

     iteration #  5     ecut=    48.00 Ry     beta= 0.50
     Davidson diagonalization with overlap
     ethr =  1.73E-04,  avg # of iterations =  9.9

     negative rho (up, down):  4.018E-03 3.970E-03

     total cpu time spent up to now is      213.4 secs

     total energy              =   -1133.78402452 Ry
     estimated scf accuracy    <       0.27037851 Ry

     total magnetization       =    10.00 Bohr mag/cell
     absolute magnetization    =    10.02 Bohr mag/cell

     iteration #  6     ecut=    48.00 Ry     beta= 0.50
     Davidson diagonalization with overlap
     ethr =  1.73E-04,  avg # of iterations =  5.9

     negative rho (up, down):  3.537E-03 3.942E-03

     total cpu time spent up to now is      249.6 secs

     total energy              =   -1133.81587472 Ry
     estimated scf accuracy    <       0.09532691 Ry

     total magnetization       =    10.00 Bohr mag/cell
     absolute magnetization    =    10.02 Bohr mag/cell

     iteration #  7     ecut=    48.00 Ry     beta= 0.50
     Davidson diagonalization with overlap
     ethr =  6.11E-05,  avg # of iterations =  5.7

     negative rho (up, down):  3.261E-03 3.775E-03

     total cpu time spent up to now is      285.5 secs

     total energy              =   -1133.82583176 Ry
     estimated scf accuracy    <       0.01734369 Ry

     total magnetization       =    10.00 Bohr mag/cell
     absolute magnetization    =    10.02 Bohr mag/cell

     iteration #  8     ecut=    48.00 Ry     beta= 0.50
     Davidson diagonalization with overlap
     ethr =  1.11E-05,  avg # of iterations =  7.4

     negative rho (up, down):  3.147E-03 3.773E-03

     total cpu time spent up to now is      320.9 secs

     total energy              =   -1133.82771958 Ry
     estimated scf accuracy    <       0.00092535 Ry

     total magnetization       =    10.00 Bohr mag/cell
     absolute magnetization    =    10.01 Bohr mag/cell

     iteration #  9     ecut=    48.00 Ry     beta= 0.50
     Davidson diagonalization with overlap
     c_bands:  1 eigenvalues not converged
     c_bands:  2 eigenvalues not converged
     c_bands:  1 eigenvalues not converged
     ethr =  5.93E-07,  avg # of iterations = 10.3

     negative rho (up, down):  3.119E-03 3.785E-03

     total cpu time spent up to now is      367.8 secs

     total energy              =   -1133.82797791 Ry
     estimated scf accuracy    <       0.00017572 Ry

     total magnetization       =    10.00 Bohr mag/cell
     absolute magnetization    =    10.01 Bohr mag/cell

     iteration # 10     ecut=    48.00 Ry     beta= 0.50
     Davidson diagonalization with overlap
     ethr =  1.13E-07,  avg # of iterations =  2.6

     negative rho (up, down):  3.109E-03 3.789E-03

     total cpu time spent up to now is      400.0 secs

     total energy              =   -1133.82801883 Ry
     estimated scf accuracy    <       0.00005306 Ry

     total magnetization       =    10.00 Bohr mag/cell
     absolute magnetization    =    10.01 Bohr mag/cell

     iteration # 11     ecut=    48.00 Ry     beta= 0.50
     Davidson diagonalization with overlap
     ethr =  3.40E-08,  avg # of iterations =  2.2

     negative rho (up, down):  3.105E-03 3.796E-03

     total cpu time spent up to now is      430.3 secs

     total energy              =   -1133.82803278 Ry
     estimated scf accuracy    <       0.00000810 Ry

     total magnetization       =    10.00 Bohr mag/cell
     absolute magnetization    =    10.01 Bohr mag/cell

     iteration # 12     ecut=    48.00 Ry     beta= 0.50
     Davidson diagonalization with overlap
     ethr =  5.19E-09,  avg # of iterations =  4.9

     negative rho (up, down):  3.102E-03 3.799E-03

     total cpu time spent up to now is      465.0 secs

     total energy              =   -1133.82803707 Ry
     estimated scf accuracy    <       0.00000123 Ry

     total magnetization       =    10.00 Bohr mag/cell
     absolute magnetization    =    10.01 Bohr mag/cell

     iteration # 13     ecut=    48.00 Ry     beta= 0.50
     Davidson diagonalization with overlap
     ethr =  7.87E-10,  avg # of iterations =  3.5

     negative rho (up, down):  3.100E-03 3.800E-03

     total cpu time spent up to now is      497.6 secs

     total energy              =   -1133.82803798 Ry
     estimated scf accuracy    <       0.00000025 Ry

     total magnetization       =    10.00 Bohr mag/cell
     absolute magnetization    =    10.01 Bohr mag/cell

     iteration # 14     ecut=    48.00 Ry     beta= 0.50
     Davidson diagonalization with overlap
     ethr =  1.59E-10,  avg # of iterations =  4.0

     negative rho (up, down):  3.100E-03 3.802E-03

     total cpu time spent up to now is      531.3 secs

     total energy              =   -1133.82803827 Ry
     estimated scf accuracy    <       0.00000010 Ry

     total magnetization       =    10.00 Bohr mag/cell
     absolute magnetization    =    10.01 Bohr mag/cell

     iteration # 15     ecut=    48.00 Ry     beta= 0.50
     Davidson diagonalization with overlap
     ethr =  6.66E-11,  avg # of iterations =  4.2

     negative rho (up, down):  3.099E-03 3.802E-03
 
     Magnetic moment per site:
     atom:    1    charge:    0.8807    magn:    0.0001    constr:    0.0000
     atom:    2    charge:    0.8804    magn:    0.0001    constr:    0.0000
     atom:    3    charge:    0.8792    magn:    0.0008    constr:    0.0000
     atom:    4    charge:    0.8807    magn:    0.0002    constr:    0.0000
     atom:    5    charge:    0.8801    magn:    0.0004    constr:    0.0000
     atom:    6    charge:    0.8801    magn:    0.0002    constr:    0.0000
     atom:    7    charge:    2.8611    magn:    0.0001    constr:    0.0000
     atom:    8    charge:    2.8609    magn:    0.0003    constr:    0.0000
     atom:    9    charge:    2.8611    magn:    0.0073    constr:    0.0000
     atom:   10    charge:    2.8609    magn:    0.0014    constr:    0.0000
     atom:   11    charge:    2.8605    magn:    0.0031    constr:    0.0000
     atom:   12    charge:    2.8609    magn:    0.0001    constr:    0.0000
     atom:   13    charge:    2.8598    magn:    0.0022    constr:    0.0000
     atom:   14    charge:    2.8599    magn:    0.0004    constr:    0.0000
     atom:   15    charge:    2.8596    magn:    0.0019    constr:    0.0000
     atom:   16    charge:    0.8800    magn:    0.0002    constr:    0.0000
     atom:   17    charge:    0.8801    magn:    0.0001    constr:    0.0000
     atom:   18    charge:    0.8798    magn:    0.0002    constr:    0.0000
     atom:   19    charge:    0.8795    magn:    0.0004    constr:    0.0000
     atom:   20    charge:    0.8801    magn:    0.0001    constr:    0.0000
     atom:   21    charge:    0.8797    magn:    0.0002    constr:    0.0000
     atom:   22    charge:    2.8611    magn:    0.0022    constr:    0.0000
     atom:   23    charge:    0.8799    magn:    0.0001    constr:    0.0000
     atom:   24    charge:    0.8797    magn:    0.0002    constr:    0.0000
     atom:   25    charge:    0.8804    magn:    0.0002    constr:    0.0000
     atom:   26    charge:    2.8598    magn:    0.0001    constr:    0.0000
     atom:   27    charge:    2.8598    magn:    0.0003    constr:    0.0000
     atom:   28    charge:    2.8596    magn:    0.0018    constr:    0.0000
     atom:   29    charge:    2.8594    magn:    0.0018    constr:    0.0000
     atom:   30    charge:    2.8598    magn:    0.0073    constr:    0.0000
     atom:   31    charge:    2.8596    magn:    0.0014    constr:    0.0000
     atom:   32    charge:    0.8807    magn:    0.0002    constr:    0.0000
     atom:   33    charge:   12.5174    magn:    4.2347    constr:    0.0000
     atom:   34    charge:   12.5173    magn:    4.2347    constr:    0.0000

     total cpu time spent up to now is      564.9 secs

     End of self-consistent calculation

 ------ SPIN UP ------------


          k = 0.1667 0.2887 0.0000 ( 59267 PWs)   bands (ev):

   -72.8832 -72.8750 -44.4333 -44.3526 -44.2918 -44.2839 -44.2506 -44.2427
   -21.2535 -20.6670 -20.6621 -20.1094 -20.1044 -19.5924 -19.5900 -19.1057
   -18.7057 -18.6974 -18.4616 -18.4586 -18.2017 -18.0910 -18.0829 -17.8556
   -12.4904 -12.2110 -12.2090 -11.8263 -11.8237 -11.6645 -11.1977 -11.1951
   -10.3977 -10.3740 -10.1233 -10.1208  -9.5953  -9.5941  -8.8438  -8.8318
    -8.8299  -8.7715  -8.7684  -8.6022  -8.2029  -8.0625  -8.0185  -7.8358
    -7.8331  -7.4450  -7.4428  -7.2878  -7.2671  -7.2141  -7.2127  -6.9647
    -6.9630  -6.5754  -6.5408  -6.1601  -6.1588  -5.8784  -5.4246  -5.3111
    -5.2767  -5.2062  -4.9171  -4.9080  -4.5147  -4.3622  -4.3428  -3.9855
    -2.8818  -2.0443  -2.0289  -1.8375  -1.6546  -1.5644  -1.4935  -1.4834
    -1.3765  -1.3555  -1.2841  -0.7355   0.6388   0.8365   1.0922   1.1948
     1.2789   1.4573   1.5171   1.5749   1.6201   1.7880

          k = 0.1667-0.4811 0.0000 ( 59291 PWs)   bands (ev):

   -72.8832 -72.8750 -44.4333 -44.3526 -44.2918 -44.2839 -44.2506 -44.2427
   -21.1239 -20.9172 -20.7295 -20.1675 -19.8107 -19.4723 -19.3236 -19.1812
   -19.0201 -18.7841 -18.6514 -18.5484 -18.1572 -18.0925 -17.9282 -17.7300
   -12.3549 -12.1197 -12.0503 -11.9115 -11.6862 -11.6648 -11.5582 -10.9477
   -10.8966 -10.6299 -10.5281  -9.8668  -9.6992  -9.3420  -9.1170  -8.6773
    -8.6293  -8.5594  -8.3944  -8.3719  -8.1674  -8.1293  -8.0691  -8.0559
    -7.6959  -7.6293  -7.5005  -7.4797  -7.3639  -7.1764  -7.0736  -6.8680
    -6.6283  -6.3945  -6.1866  -6.1640  -5.9786  -5.9353  -5.7899  -5.7506
    -5.4571  -5.4017  -5.2237  -5.0441  -4.4551  -4.3484  -4.0953  -3.7739
    -2.8789  -2.0448  -2.0284  -1.8342  -1.6531  -1.5640  -1.4959  -1.4851
    -1.3766  -1.3555  -1.2846  -0.7388   0.5578   0.8422   1.0736   1.1356
     1.2080   1.2632   1.3980   1.8355   1.9259   2.1052

          k = 0.1667-0.0962 0.0000 ( 59226 PWs)   bands (ev):

   -72.8832 -72.8750 -44.4333 -44.3526 -44.2918 -44.2839 -44.2506 -44.2427
   -21.3198 -20.5431 -20.3546 -20.3413 -19.9989 -19.9837 -19.8109 -18.7408
   -18.7251 -18.3828 -18.3754 -18.3598 -18.2723 -18.2700 -18.0848 -18.0743
   -12.5118 -12.5100 -12.4138 -11.5893 -11.5802 -11.4303 -11.4286 -10.9328
   -10.9286  -9.9369  -9.9307  -9.6819  -9.3814  -9.3782  -9.2364  -9.2330
    -9.0483  -9.0461  -8.9312  -8.3310  -8.3260  -7.9082  -7.9056  -7.8902
    -7.8510  -7.7763  -7.6195  -7.5828  -7.1489  -7.0925  -6.9658  -6.8952
    -6.8902  -6.8553  -6.5389  -6.5327  -6.2635  -5.3692  -5.3164  -5.1493
    -5.0714  -4.8236  -4.8069  -4.7523  -4.6193  -4.6107  -4.3606  -4.3322
    -2.8846  -2.0438  -2.0294  -1.8408  -1.6572  -1.5645  -1.4915  -1.4817
    -1.3764  -1.3555  -1.2836  -0.7319   0.7290   0.8111   1.0510   1.2065
     1.2903   1.3412   1.5709   1.5855   1.7216   1.9085

          k =-0.5000-0.8660 0.0000 ( 59292 PWs)   bands (ev):

   -72.8832 -72.8750 -44.4333 -44.3526 -44.2918 -44.2839 -44.2506 -44.2427
   -21.0565 -21.0532 -20.4792 -20.4662 -19.4364 -19.4307 -19.4160 -19.4132
   -18.9983 -18.9951 -18.3287 -18.3251 -18.3238 -18.3229 -17.8028 -17.7910
   -12.0742 -12.0714 -12.0699 -12.0693 -11.8867 -11.8764 -11.3351 -11.3330
   -10.2437 -10.2353 -10.1420 -10.1404 -10.1324 -10.1315  -8.6006  -8.5558
    -8.5513  -8.5510  -8.5497  -8.5461  -7.8726  -7.8716  -7.8629  -7.8620
    -7.8309  -7.8233  -7.7931  -7.7540  -7.4946  -7.4936  -6.6206  -6.6112
    -6.3754  -6.3467  -6.3034  -6.2958  -6.1955  -6.1935  -5.7207  -5.6999
    -5.5505  -5.5491  -4.7355  -4.7308  -4.7018  -4.6931  -3.9001  -3.8670
    -2.8667  -2.0434  -2.0254  -1.8351  -1.6545  -1.5635  -1.4945  -1.4874
    -1.3798  -1.3624  -1.2896  -0.8609   0.7230   1.0172   1.1082   1.2070
     1.3240   1.5448   1.5813   1.6218   1.7290   1.7499

          k =-0.1667 0.2887 0.0000 ( 59267 PWs)   bands (ev):

   -72.8832 -72.8750 -44.4333 -44.3526 -44.2918 -44.2839 -44.2506 -44.2427
   -21.2535 -20.6670 -20.6621 -20.1094 -20.1043 -19.5924 -19.5901 -19.1057
   -18.7057 -18.6975 -18.4616 -18.4586 -18.2016 -18.0910 -18.0829 -17.8556
   -12.4904 -12.2110 -12.2090 -11.8263 -11.8237 -11.6645 -11.1977 -11.1951
   -10.3977 -10.3740 -10.1233 -10.1208  -9.5953  -9.5941  -8.8438  -8.8318
    -8.8299  -8.7715  -8.7684  -8.6022  -8.2029  -8.0625  -8.0185  -7.8358
    -7.8331  -7.4450  -7.4428  -7.2878  -7.2671  -7.2141  -7.2127  -6.9647
    -6.9630  -6.5754  -6.5408  -6.1602  -6.1588  -5.8784  -5.4246  -5.3111
    -5.2768  -5.2061  -4.9171  -4.9080  -4.5147  -4.3622  -4.3428  -3.9855
    -2.8818  -2.0443  -2.0289  -1.8375  -1.6546  -1.5644  -1.4935  -1.4834
    -1.3765  -1.3555  -1.2841  -0.7355   0.6388   0.8366   1.0922   1.1948
     1.2789   1.4573   1.5171   1.5749   1.6201   1.7881

          k = 0.3333 0.0000 0.0000 ( 59267 PWs)   bands (ev):

   -72.8832 -72.8750 -44.4333 -44.3526 -44.2918 -44.2839 -44.2506 -44.2427
   -21.2530 -20.6957 -20.6331 -20.1188 -20.0927 -19.6237 -19.5615 -19.1087
   -18.7235 -18.6725 -18.4744 -18.4478 -18.1965 -18.1182 -18.0645 -17.8544
   -12.4891 -12.2194 -12.2013 -11.8374 -11.8158 -11.6620 -11.2177 -11.1753
   -10.3975 -10.3729 -10.1388 -10.1064  -9.6019  -9.5855  -8.8445  -8.8375
    -8.8197  -8.7978  -8.7443  -8.6037  -8.2054  -8.1135  -7.9668  -7.8362
    -7.8300  -7.4513  -7.4356  -7.3082  -7.2397  -7.2252  -7.2011  -6.9758
    -6.9539  -6.6310  -6.4946  -6.1634  -6.1545  -5.8870  -5.4243  -5.3254
    -5.2467  -5.2066  -4.9442  -4.8839  -4.5062  -4.3995  -4.3214  -3.9832
    -2.8737  -2.0434  -2.0262  -1.8383  -1.6567  -1.5639  -1.4924  -1.4848
    -1.3787  -1.3602  -1.2872  -0.8204   0.7447   1.0177   1.1367   1.2340
     1.2973   1.4541   1.5234   1.5660   1.5726   1.8335

          k =-0.1667-0.4811 0.0000 ( 59291 PWs)   bands (ev):

   -72.8832 -72.8750 -44.4333 -44.3526 -44.2918 -44.2839 -44.2506 -44.2427
   -21.1239 -20.9172 -20.7295 -20.1675 -19.8107 -19.4723 -19.3236 -19.1812
   -19.0201 -18.7841 -18.6514 -18.5483 -18.1572 -18.0925 -17.9282 -17.7300
   -12.3549 -12.1197 -12.0503 -11.9115 -11.6862 -11.6648 -11.5582 -10.9477
   -10.8967 -10.6299 -10.5281  -9.8667  -9.6992  -9.3420  -9.1170  -8.6773
    -8.6293  -8.5594  -8.3944  -8.3719  -8.1674  -8.1293  -8.0691  -8.0560
    -7.6959  -7.6294  -7.5005  -7.4797  -7.3639  -7.1764  -7.0736  -6.8680
    -6.6283  -6.3946  -6.1867  -6.1640  -5.9786  -5.9352  -5.7898  -5.7506
    -5.4572  -5.4017  -5.2237  -5.0441  -4.4551  -4.3485  -4.0953  -3.7739
    -2.8789  -2.0448  -2.0284  -1.8342  -1.6531  -1.5640  -1.4959  -1.4851
    -1.3766  -1.3555  -1.2846  -0.7388   0.5578   0.8422   1.0736   1.1356
     1.2080   1.2632   1.3980   1.8355   1.9263   2.1056

          k = 0.5000-0.0962 0.0000 ( 59291 PWs)   bands (ev):

   -72.8832 -72.8750 -44.4333 -44.3526 -44.2918 -44.2839 -44.2506 -44.2427
   -21.1203 -20.9271 -20.7232 -20.1653 -19.8101 -19.4759 -19.3305 -19.1746
   -19.0220 -18.7866 -18.6365 -18.5560 -18.1429 -18.1132 -17.9244 -17.7294
   -12.3525 -12.1207 -12.0480 -11.9172 -11.7007 -11.6475 -11.5607 -10.9484
   -10.8936 -10.6276 -10.5315  -9.8639  -9.6998  -9.3430  -9.1162  -8.6650
    -8.6303  -8.5570  -8.4076  -8.3992  -8.1650  -8.1075  -8.0849  -8.0416
    -7.6905  -7.6301  -7.4994  -7.4812  -7.3568  -7.1784  -7.0745  -6.8652
    -6.6289  -6.4091  -6.2029  -6.1630  -5.9607  -5.9343  -5.7889  -5.7553
    -5.4587  -5.4061  -5.1907  -5.0607  -4.4307  -4.3834  -4.0900  -3.7725
    -2.8667  -2.0435  -2.0254  -1.8351  -1.6551  -1.5634  -1.4946  -1.4874
    -1.3799  -1.3624  -1.2895  -0.8607   0.7060   1.0149   1.1278   1.2005
     1.2578   1.2915   1.5267   1.7529   1.8465   1.9298

          k =-0.3333-0.3849 0.0000 ( 59291 PWs)   bands (ev):

   -72.8832 -72.8750 -44.4333 -44.3526 -44.2918 -44.2839 -44.2506 -44.2427
   -21.1215 -20.9236 -20.7256 -20.1648 -19.8133 -19.4728 -19.3236 -19.1798
   -19.0258 -18.7837 -18.6383 -18.5555 -18.1461 -18.1090 -17.9247 -17.7297
   -12.3540 -12.1173 -12.0512 -11.9150 -11.6878 -11.6625 -11.5597 -10.9483
   -10.8934 -10.6269 -10.5321  -9.8646  -9.6999  -9.3425  -9.1177  -8.6692
    -8.6283  -8.5591  -8.3969  -8.3936  -8.1668  -8.1160  -8.0688  -8.0594
    -7.6908  -7.6282  -7.5076  -7.4735  -7.3546  -7.1784  -7.0755  -6.8766
    -6.6262  -6.3968  -6.1845  -6.1660  -5.9773  -5.9329  -5.7892  -5.7654
    -5.4584  -5.3984  -5.1921  -5.0623  -4.4341  -4.3787  -4.0897  -3.7730
    -2.8708  -2.0439  -2.0268  -1.8348  -1.6540  -1.5637  -1.4950  -1.4867
    -1.3788  -1.3600  -1.2878  -0.8236   0.6585   0.9748   1.0892   1.1829
     1.2168   1.3506   1.4186   1.8205   1.8877   1.9203

          k = 0.5000 0.0962 0.0000 ( 59291 PWs)   bands (ev):

   -72.8832 -72.8750 -44.4333 -44.3526 -44.2918 -44.2839 -44.2506 -44.2427
   -21.1203 -20.9271 -20.7232 -20.1653 -19.8101 -19.4759 -19.3305 -19.1745
   -19.0220 -18.7866 -18.6365 -18.5560 -18.1429 -18.1132 -17.9244 -17.7294
   -12.3525 -12.1207 -12.0479 -11.9172 -11.7007 -11.6475 -11.5607 -10.9484
   -10.8936 -10.6276 -10.5315  -9.8639  -9.6998  -9.3430  -9.1162  -8.6650
    -8.6303  -8.5570  -8.4076  -8.3992  -8.1650  -8.1075  -8.0849  -8.0416
    -7.6906  -7.6300  -7.4994  -7.4812  -7.3568  -7.1785  -7.0745  -6.8652
    -6.6288  -6.4091  -6.2029  -6.1629  -5.9608  -5.9343  -5.7890  -5.7553
    -5.4588  -5.4062  -5.1907  -5.0607  -4.4307  -4.3834  -4.0900  -3.7725
    -2.8667  -2.0435  -2.0254  -1.8351  -1.6551  -1.5634  -1.4946  -1.4874
    -1.3799  -1.3624  -1.2895  -0.8607   0.7060   1.0149   1.1278   1.2005
     1.2578   1.2915   1.5266   1.7528   1.8464   1.9297

          k =-0.3333 0.3849 0.0000 ( 59291 PWs)   bands (ev):

   -72.8832 -72.8750 -44.4333 -44.3526 -44.2918 -44.2839 -44.2506 -44.2427
   -21.1215 -20.9236 -20.7256 -20.1648 -19.8133 -19.4728 -19.3236 -19.1798
   -19.0258 -18.7837 -18.6383 -18.5555 -18.1461 -18.1090 -17.9247 -17.7297
   -12.3540 -12.1173 -12.0512 -11.9150 -11.6878 -11.6625 -11.5597 -10.9483
   -10.8934 -10.6268 -10.5321  -9.8646  -9.6999  -9.3425  -9.1177  -8.6692
    -8.6284  -8.5590  -8.3970  -8.3936  -8.1668  -8.1160  -8.0688  -8.0594
    -7.6908  -7.6282  -7.5076  -7.4735  -7.3546  -7.1784  -7.0755  -6.8766
    -6.6262  -6.3968  -6.1845  -6.1661  -5.9772  -5.9330  -5.7892  -5.7654
    -5.4583  -5.3984  -5.1921  -5.0623  -4.4341  -4.3787  -4.0897  -3.7730
    -2.8708  -2.0439  -2.0268  -1.8348  -1.6540  -1.5637  -1.4950  -1.4867
    -1.3788  -1.3600  -1.2878  -0.8236   0.6584   0.9748   1.0892   1.1830
     1.2168   1.3506   1.4186   1.8206   1.8878   1.9203

          k =-0.1667-0.0962 0.0000 ( 59226 PWs)   bands (ev):

   -72.8832 -72.8750 -44.4333 -44.3526 -44.2918 -44.2839 -44.2506 -44.2427
   -21.3198 -20.5431 -20.3546 -20.3413 -19.9989 -19.9837 -19.8109 -18.7408
   -18.7251 -18.3828 -18.3754 -18.3598 -18.2723 -18.2700 -18.0848 -18.0743
   -12.5118 -12.5100 -12.4138 -11.5892 -11.5802 -11.4303 -11.4286 -10.9328
   -10.9286  -9.9370  -9.9307  -9.6819  -9.3814  -9.3782  -9.2364  -9.2331
    -9.0483  -9.0461  -8.9312  -8.3310  -8.3260  -7.9082  -7.9055  -7.8902
    -7.8510  -7.7763  -7.6195  -7.5828  -7.1489  -7.0925  -6.9658  -6.8952
    -6.8901  -6.8553  -6.5389  -6.5326  -6.2636  -5.3692  -5.3164  -5.1492
    -5.0715  -4.8236  -4.8068  -4.7523  -4.6193  -4.6106  -4.3606  -4.3322
    -2.8846  -2.0438  -2.0294  -1.8408  -1.6572  -1.5645  -1.4915  -1.4817
    -1.3764  -1.3555  -1.2836  -0.7319   0.7290   0.8111   1.0510   1.2064
     1.2903   1.3412   1.5709   1.5855   1.7216   1.9086

          k =-0.0000-0.1925 0.0000 ( 59226 PWs)   bands (ev):

   -72.8832 -72.8750 -44.4333 -44.3526 -44.2918 -44.2839 -44.2506 -44.2427
   -21.3200 -20.5368 -20.3593 -20.3478 -19.9919 -19.9813 -19.8153 -18.7357
   -18.7251 -18.4152 -18.3683 -18.3578 -18.2595 -18.2581 -18.0875 -18.0781
   -12.5200 -12.5021 -12.4136 -11.5893 -11.5814 -11.4378 -11.4178 -10.9336
   -10.9301  -9.9345  -9.9333  -9.6817  -9.3865  -9.3715  -9.2362  -9.2354
    -9.0478  -9.0460  -8.9318  -8.3293  -8.3270  -7.9086  -7.9023  -7.8703
    -7.8507  -7.7786  -7.6390  -7.6018  -7.1175  -7.0940  -6.9641  -6.8957
    -6.8915  -6.8678  -6.5378  -6.5330  -6.2642  -5.3508  -5.3239  -5.1497
    -5.0710  -4.8804  -4.7831  -4.7588  -4.6020  -4.5875  -4.3600  -4.3443
    -2.8886  -2.0443  -2.0307  -1.8404  -1.6561  -1.5647  -1.4922  -1.4810
    -1.3753  -1.3532  -1.2823  -0.6822   0.6394   0.7576   1.0350   1.1760
     1.2457   1.4033   1.5516   1.6098   1.6849   1.9897

          k = 0.5000-0.8660 0.0000 ( 59292 PWs)   bands (ev):

   -72.8832 -72.8750 -44.4333 -44.3526 -44.2918 -44.2839 -44.2506 -44.2427
   -21.0565 -21.0532 -20.4792 -20.4662 -19.4364 -19.4307 -19.4160 -19.4131
   -18.9982 -18.9951 -18.3287 -18.3251 -18.3239 -18.3230 -17.8028 -17.7910
   -12.0741 -12.0713 -12.0699 -12.0693 -11.8867 -11.8764 -11.3350 -11.3330
   -10.2437 -10.2353 -10.1420 -10.1404 -10.1323 -10.1315  -8.6006  -8.5557
    -8.5513  -8.5510  -8.5497  -8.5461  -7.8726  -7.8715  -7.8630  -7.8619
    -7.8310  -7.8234  -7.7931  -7.7540  -7.4947  -7.4936  -6.6206  -6.6111
    -6.3754  -6.3467  -6.3034  -6.2958  -6.1954  -6.1934  -5.7207  -5.6999
    -5.5506  -5.5492  -4.7354  -4.7308  -4.7018  -4.6931  -3.9001  -3.8670
    -2.8667  -2.0434  -2.0254  -1.8351  -1.6545  -1.5635  -1.4945  -1.4874
    -1.3798  -1.3624  -1.2896  -0.8609   0.7230   1.0172   1.1083   1.2070
     1.3239   1.5447   1.5812   1.6218   1.7290   1.7498

          k =-1.0000 0.0000 0.0000 ( 59292 PWs)   bands (ev):

   -72.8832 -72.8750 -44.4334 -44.3526 -44.2918 -44.2839 -44.2506 -44.2426
   -21.0844 -21.0216 -20.4814 -20.4700 -19.4376 -19.4329 -19.4173 -19.4009
   -19.0225 -18.9722 -18.3964 -18.3168 -18.3082 -18.2808 -17.8026 -17.7934
   -12.1230 -12.0728 -12.0507 -12.0341 -11.8866 -11.8766 -11.3581 -11.3120
   -10.2494 -10.2477 -10.1367 -10.1365 -10.1290 -10.1288  -8.6435  -8.5905
    -8.5562  -8.5351  -8.5184  -8.4927  -7.8844  -7.8751  -7.8673  -7.8653
    -7.8197  -7.8172  -7.7962  -7.7678  -7.5231  -7.4679  -6.6172  -6.6112
    -6.3695  -6.3480  -6.3048  -6.2763  -6.2177  -6.1749  -5.7501  -5.6756
    -5.5754  -5.5245  -4.8496  -4.6989  -4.6783  -4.6398  -3.8926  -3.8782
    -2.8829  -2.0453  -2.0287  -1.8338  -1.6527  -1.5642  -1.4962  -1.4844
    -1.3755  -1.3533  -1.2832  -0.6899   0.5180   0.7531   1.0902   1.1076
     1.1600   1.5190   1.5778   1.6194   1.6329   1.9264

 ------ SPIN DOWN ----------


          k = 0.1667 0.2887 0.0000 ( 59267 PWs)   bands (ev):

   -68.6869 -68.6775 -40.3644 -40.2687 -40.1226 -40.1131 -40.0445 -40.0350
   -21.2497 -20.6627 -20.6591 -20.1055 -20.1008 -19.5885 -19.5867 -19.1018
   -18.7001 -18.6943 -18.4577 -18.4548 -18.1970 -18.0870 -18.0800 -17.8517
   -12.4881 -12.2086 -12.2066 -11.8240 -11.8217 -11.6625 -11.1950 -11.1930
   -10.3950 -10.3715 -10.1200 -10.1188  -9.5927  -9.5919  -8.8294  -8.8272
    -8.8237  -8.7692  -8.7661  -8.5999  -8.2007  -8.0382  -8.0094  -7.8332
    -7.8309  -7.4414  -7.4402  -7.2683  -7.2538  -7.2117  -7.2104  -6.9623
    -6.9607  -6.5540  -6.5330  -6.1574  -6.1565  -5.8622  -5.4216  -5.2852
    -5.2665  -5.2036  -4.9028  -4.8954  -4.4973  -4.3475  -4.3348  -3.9720
    -1.4472   0.3916   0.8156   0.9623   1.1119   1.1735   1.2851   1.3592
     1.3950   1.4655   1.5457   1.6178   1.6391   1.7305   1.8841   2.0305
     2.0544   2.0670   2.1431   2.1678   2.3061   2.3443

          k = 0.1667-0.4811 0.0000 ( 59291 PWs)   bands (ev):

   -68.6869 -68.6775 -40.3644 -40.2687 -40.1226 -40.1131 -40.0445 -40.0350
   -21.1198 -20.9141 -20.7257 -20.1637 -19.8071 -19.4686 -19.3198 -19.1773
   -19.0163 -18.7806 -18.6460 -18.5454 -18.1517 -18.0903 -17.9242 -17.7259
   -12.3525 -12.1174 -12.0481 -11.9095 -11.6843 -11.6623 -11.5560 -10.9452
   -10.8939 -10.6273 -10.5259  -9.8638  -9.6969  -9.3392  -9.1146  -8.6537
    -8.6268  -8.5565  -8.3923  -8.3604  -8.1651  -8.1126  -8.0667  -8.0537
    -7.6931  -7.6270  -7.4980  -7.4775  -7.3461  -7.1736  -7.0713  -6.8519
    -6.6252  -6.3795  -6.1694  -6.1615  -5.9637  -5.9322  -5.7872  -5.7357
    -5.4546  -5.3880  -5.1998  -5.0358  -4.4341  -4.3427  -4.0818  -3.7604
    -1.4380   0.3815   0.8134   0.9252   1.0235   1.1352   1.2260   1.2636
     1.3698   1.4113   1.5629   1.7305   1.7718   1.8873   1.9245   2.0581
     2.1118   2.1291   2.1640   2.2072   2.3142   2.3425

          k = 0.1667-0.0962 0.0000 ( 59226 PWs)   bands (ev):

   -68.6869 -68.6775 -40.3644 -40.2687 -40.1226 -40.1131 -40.0445 -40.0350
   -21.3161 -20.5389 -20.3508 -20.3383 -19.9942 -19.9806 -19.8078 -18.7355
   -18.7217 -18.3777 -18.3716 -18.3566 -18.2682 -18.2660 -18.0811 -18.0711
   -12.5095 -12.5077 -12.4116 -11.5867 -11.5784 -11.4279 -11.4262 -10.9302
   -10.9264  -9.9342  -9.9286  -9.6792  -9.3789  -9.3759  -9.2335  -9.2305
    -9.0458  -9.0439  -8.9126  -8.3278  -8.3233  -7.9053  -7.9032  -7.8677
    -7.8476  -7.7741  -7.6029  -7.5731  -7.1234  -7.0826  -6.9632  -6.8926
    -6.8882  -6.8453  -6.5362  -6.5305  -6.2611  -5.3429  -5.3057  -5.1465
    -5.0688  -4.8011  -4.7906  -4.7427  -4.6057  -4.5993  -4.3461  -4.3231
    -1.4563   0.4041   0.8155   0.9671   1.0677   1.1495   1.2043   1.3093
     1.5026   1.5275   1.6026   1.6651   1.7868   1.8206   1.8711   1.9342
     2.0245   2.0688   2.1161   2.1376   2.2573   2.3458

          k =-0.5000-0.8660 0.0000 ( 59292 PWs)   bands (ev):

   -68.6869 -68.6775 -40.3644 -40.2687 -40.1226 -40.1131 -40.0445 -40.0350
   -21.0518 -21.0503 -20.4752 -20.4632 -19.4311 -19.4261 -19.4132 -19.4101
   -18.9937 -18.9923 -18.3230 -18.3217 -18.3210 -18.3189 -17.7984 -17.7875
   -12.0709 -12.0688 -12.0682 -12.0673 -11.8842 -11.8749 -11.3323 -11.3310
   -10.2407 -10.2334 -10.1388 -10.1377 -10.1301 -10.1293  -8.5719  -8.5510
    -8.5495  -8.5487  -8.5473  -8.5383  -7.8695  -7.8688  -7.8610  -7.8600
    -7.8277  -7.8203  -7.7751  -7.7440  -7.4931  -7.4907  -6.6174  -6.6092
    -6.3434  -6.3261  -6.2949  -6.2875  -6.1928  -6.1907  -5.7018  -5.6917
    -5.5477  -5.5467  -4.7130  -4.7073  -4.6940  -4.6888  -3.8833  -3.8578
    -1.4144   0.1392   0.8266   1.0026   1.0592   1.1615   1.2506   1.3924
     1.5029   1.5564   1.5725   1.7140   1.7627   1.8738   1.9091   1.9414
     1.9727   2.0940   2.1713   2.1874   2.3227   2.3536

          k =-0.1667 0.2887 0.0000 ( 59267 PWs)   bands (ev):

   -68.6869 -68.6775 -40.3644 -40.2687 -40.1226 -40.1131 -40.0445 -40.0350
   -21.2497 -20.6626 -20.6591 -20.1055 -20.1008 -19.5885 -19.5867 -19.1018
   -18.7001 -18.6944 -18.4577 -18.4548 -18.1970 -18.0870 -18.0800 -17.8517
   -12.4881 -12.2086 -12.2066 -11.8241 -11.8217 -11.6625 -11.1949 -11.1930
   -10.3950 -10.3715 -10.1200 -10.1189  -9.5927  -9.5919  -8.8293  -8.8272
    -8.8237  -8.7692  -8.7661  -8.5999  -8.2007  -8.0382  -8.0094  -7.8332
    -7.8308  -7.4415  -7.4402  -7.2683  -7.2538  -7.2117  -7.2104  -6.9624
    -6.9607  -6.5540  -6.5330  -6.1574  -6.1564  -5.8622  -5.4217  -5.2852
    -5.2666  -5.2035  -4.9028  -4.8954  -4.4974  -4.3475  -4.3348  -3.9720
    -1.4472   0.3915   0.8156   0.9624   1.1120   1.1735   1.2851   1.3592
     1.3950   1.4655   1.5457   1.6178   1.6391   1.7305   1.8841   2.0305
     2.0544   2.0670   2.1432   2.1678   2.3061   2.3443

          k = 0.3333 0.0000 0.0000 ( 59267 PWs)   bands (ev):

   -68.6869 -68.6775 -40.3644 -40.2687 -40.1226 -40.1131 -40.0445 -40.0350
   -21.2492 -20.6903 -20.6313 -20.1146 -20.0896 -19.6180 -19.5596 -19.1045
   -18.7176 -18.6707 -18.4699 -18.4443 -18.1925 -18.1122 -18.0625 -17.8506
   -12.4869 -12.2166 -12.1993 -11.8349 -11.8139 -11.6602 -11.2143 -11.1737
   -10.3948 -10.3705 -10.1352 -10.1048  -9.5991  -9.5837  -8.8344  -8.8277
    -8.8149  -8.7941  -8.7431  -8.6012  -8.2029  -8.0842  -7.9630  -7.8337
    -7.8279  -7.4477  -7.4333  -7.2857  -7.2314  -7.2221  -7.1995  -6.9728
    -6.9520  -6.6031  -6.4905  -6.1606  -6.1523  -5.8685  -5.4214  -5.3026
    -5.2382  -5.2040  -4.9247  -4.8754  -4.4905  -4.3801  -4.3141  -3.9704
    -1.4321   0.2194   0.8669   0.9628   1.1115   1.1489   1.2524   1.4324
     1.4666   1.4959   1.5556   1.7065   1.7560   1.8581   1.8957   1.9180
     2.0171   2.0631   2.1444   2.2161   2.3059   2.3454

          k =-0.1667-0.4811 0.0000 ( 59291 PWs)   bands (ev):

   -68.6869 -68.6775 -40.3644 -40.2687 -40.1226 -40.1131 -40.0445 -40.0350
   -21.1198 -20.9141 -20.7257 -20.1637 -19.8071 -19.4686 -19.3198 -19.1773
   -19.0163 -18.7806 -18.6460 -18.5454 -18.1517 -18.0903 -17.9242 -17.7259
   -12.3525 -12.1174 -12.0481 -11.9094 -11.6842 -11.6623 -11.5560 -10.9452
   -10.8940 -10.6273 -10.5259  -9.8638  -9.6969  -9.3393  -9.1146  -8.6537
    -8.6268  -8.5565  -8.3922  -8.3604  -8.1650  -8.1126  -8.0667  -8.0538
    -7.6931  -7.6270  -7.4979  -7.4775  -7.3461  -7.1736  -7.0713  -6.8519
    -6.6252  -6.3795  -6.1695  -6.1615  -5.9637  -5.9322  -5.7872  -5.7357
    -5.4547  -5.3880  -5.1998  -5.0358  -4.4341  -4.3427  -4.0818  -3.7604
    -1.4380   0.3816   0.8134   0.9251   1.0235   1.1351   1.2260   1.2636
     1.3698   1.4113   1.5630   1.7305   1.7718   1.8873   1.9245   2.0580
     2.1117   2.1291   2.1640   2.2069   2.3136   2.3419

          k = 0.5000-0.0962 0.0000 ( 59291 PWs)   bands (ev):

   -68.6869 -68.6775 -40.3644 -40.2687 -40.1226 -40.1131 -40.0445 -40.0350
   -21.1165 -20.9229 -20.7201 -20.1617 -19.8065 -19.4717 -19.3259 -19.1714
   -19.0180 -18.7827 -18.6329 -18.5521 -18.1388 -18.1087 -17.9209 -17.7254
   -12.3503 -12.1183 -12.0460 -11.9147 -11.6979 -11.6462 -11.5582 -10.9459
   -10.8911 -10.6251 -10.5290  -9.8613  -9.6974  -9.3402  -9.1139  -8.6448
    -8.6275  -8.5543  -8.3980  -8.3853  -8.1629  -8.0968  -8.0814  -8.0404
    -7.6883  -7.6276  -7.4970  -7.4790  -7.3409  -7.1754  -7.0721  -6.8501
    -6.6257  -6.3884  -6.1827  -6.1606  -5.9508  -5.9315  -5.7864  -5.7390
    -5.4561  -5.3911  -5.1759  -5.0479  -4.4134  -4.3707  -4.0780  -3.7595
    -1.4145   0.1410   0.8253   0.9791   1.0421   1.1581   1.2009   1.2641
     1.4040   1.5917   1.6807   1.7815   1.8804   1.9090   1.9674   1.9882
     2.0276   2.0916   2.1979   2.2474   2.3047   2.3560

          k =-0.3333-0.3849 0.0000 ( 59291 PWs)   bands (ev):

   -68.6869 -68.6775 -40.3644 -40.2687 -40.1226 -40.1131 -40.0445 -40.0350
   -21.1177 -20.9198 -20.7223 -20.1613 -19.8093 -19.4690 -19.3199 -19.1760
   -19.0214 -18.7801 -18.6345 -18.5518 -18.1416 -18.1051 -17.9211 -17.7256
   -12.3517 -12.1151 -12.0490 -11.9126 -11.6858 -11.6602 -11.5573 -10.9457
   -10.8910 -10.6244 -10.5295  -9.8618  -9.6975  -9.3398  -9.1152  -8.6477
    -8.6259  -8.5561  -8.3942  -8.3765  -8.1645  -8.1030  -8.0664  -8.0569
    -7.6886  -7.6260  -7.5044  -7.4720  -7.3395  -7.1754  -7.0729  -6.8579
    -6.6233  -6.3809  -6.1690  -6.1629  -5.9620  -5.9302  -5.7867  -5.7469
    -5.4558  -5.3856  -5.1771  -5.0489  -4.4163  -4.3670  -4.0778  -3.7599
    -1.4225   0.2079   0.8124   0.9715   1.0320   1.1573   1.2243   1.2929
     1.3733   1.5008   1.6864   1.7560   1.8544   1.8992   1.9435   2.0252
     2.0655   2.0879   2.1359   2.2092   2.3181   2.3499

          k = 0.5000 0.0962 0.0000 ( 59291 PWs)   bands (ev):

   -68.6869 -68.6775 -40.3644 -40.2687 -40.1226 -40.1131 -40.0445 -40.0350
   -21.1165 -20.9229 -20.7201 -20.1617 -19.8065 -19.4717 -19.3259 -19.1714
   -19.0180 -18.7826 -18.6329 -18.5521 -18.1388 -18.1087 -17.9209 -17.7254
   -12.3503 -12.1183 -12.0460 -11.9147 -11.6979 -11.6462 -11.5582 -10.9458
   -10.8911 -10.6251 -10.5290  -9.8613  -9.6974  -9.3401  -9.1139  -8.6448
    -8.6275  -8.5543  -8.3980  -8.3853  -8.1629  -8.0968  -8.0813  -8.0403
    -7.6883  -7.6276  -7.4970  -7.4790  -7.3409  -7.1754  -7.0720  -6.8501
    -6.6256  -6.3884  -6.1827  -6.1605  -5.9508  -5.9314  -5.7864  -5.7390
    -5.4562  -5.3911  -5.1759  -5.0479  -4.4134  -4.3707  -4.0780  -3.7595
    -1.4145   0.1410   0.8253   0.9791   1.0422   1.1581   1.2009   1.2641
     1.4040   1.5917   1.6807   1.7815   1.8804   1.9090   1.9674   1.9882
     2.0276   2.0916   2.1978   2.2470   2.3048   2.3560

          k =-0.3333 0.3849 0.0000 ( 59291 PWs)   bands (ev):

   -68.6869 -68.6775 -40.3644 -40.2687 -40.1226 -40.1131 -40.0445 -40.0350
   -21.1177 -20.9198 -20.7223 -20.1613 -19.8093 -19.4690 -19.3199 -19.1760
   -19.0214 -18.7801 -18.6345 -18.5518 -18.1416 -18.1051 -17.9211 -17.7257
   -12.3517 -12.1151 -12.0490 -11.9126 -11.6858 -11.6602 -11.5573 -10.9457
   -10.8910 -10.6244 -10.5295  -9.8619  -9.6975  -9.3398  -9.1152  -8.6477
    -8.6259  -8.5560  -8.3942  -8.3765  -8.1646  -8.1030  -8.0663  -8.0569
    -7.6885  -7.6260  -7.5044  -7.4719  -7.3395  -7.1754  -7.0730  -6.8579
    -6.6233  -6.3809  -6.1690  -6.1629  -5.9620  -5.9303  -5.7866  -5.7469
    -5.4557  -5.3856  -5.1771  -5.0489  -4.4164  -4.3670  -4.0777  -3.7599
    -1.4225   0.2079   0.8124   0.9715   1.0320   1.1573   1.2243   1.2929
     1.3733   1.5008   1.6865   1.7559   1.8545   1.8992   1.9435   2.0251
     2.0655   2.0880   2.1360   2.2092   2.3183   2.3500

          k =-0.1667-0.0962 0.0000 ( 59226 PWs)   bands (ev):

   -68.6869 -68.6775 -40.3644 -40.2687 -40.1226 -40.1131 -40.0445 -40.0350
   -21.3161 -20.5389 -20.3508 -20.3384 -19.9942 -19.9806 -19.8078 -18.7355
   -18.7217 -18.3777 -18.3716 -18.3566 -18.2682 -18.2660 -18.0811 -18.0711
   -12.5095 -12.5077 -12.4116 -11.5867 -11.5784 -11.4279 -11.4262 -10.9302
   -10.9264  -9.9342  -9.9287  -9.6791  -9.3788  -9.3758  -9.2335  -9.2305
    -9.0458  -9.0439  -8.9126  -8.3278  -8.3233  -7.9053  -7.9032  -7.8677
    -7.8475  -7.7741  -7.6029  -7.5731  -7.1234  -7.0825  -6.9632  -6.8926
    -6.8881  -6.8453  -6.5361  -6.5305  -6.2612  -5.3429  -5.3057  -5.1464
    -5.0689  -4.8011  -4.7906  -4.7428  -4.6057  -4.5992  -4.3461  -4.3231
    -1.4563   0.4042   0.8155   0.9671   1.0677   1.1495   1.2043   1.3093
     1.5027   1.5275   1.6026   1.6651   1.7868   1.8206   1.8711   1.9343
     2.0245   2.0688   2.1161   2.1376   2.2574   2.3458

          k =-0.0000-0.1925 0.0000 ( 59226 PWs)   bands (ev):

   -68.6869 -68.6775 -40.3644 -40.2687 -40.1226 -40.1131 -40.0445 -40.0350
   -21.3163 -20.5333 -20.3549 -20.3443 -19.9881 -19.9783 -19.8117 -18.7312
   -18.7216 -18.4077 -18.3642 -18.3545 -18.2578 -18.2547 -18.0834 -18.0745
   -12.5173 -12.5002 -12.4113 -11.5868 -11.5794 -11.4352 -11.4160 -10.9309
   -10.9277  -9.9321  -9.9308  -9.6790  -9.3836  -9.3696  -9.2335  -9.2325
    -9.0455  -9.0437  -8.9130  -8.3265  -8.3241  -7.9062  -7.9002  -7.8556
    -7.8447  -7.7761  -7.6151  -7.5887  -7.1017  -7.0822  -6.9616  -6.8932
    -6.8891  -6.8548  -6.5352  -6.5308  -6.2617  -5.3302  -5.3102  -5.1469
    -5.0684  -4.8479  -4.7720  -4.7447  -4.5953  -4.5793  -4.3460  -4.3315
    -1.4634   0.5427   0.7708   0.9550   1.0720   1.1430   1.2308   1.2482
     1.4755   1.4790   1.5348   1.6031   1.7219   1.8167   1.9127   2.0037
     2.0609   2.0650   2.1416   2.1498   2.1939   2.3272

          k = 0.5000-0.8660 0.0000 ( 59292 PWs)   bands (ev):

   -68.6869 -68.6775 -40.3644 -40.2687 -40.1226 -40.1131 -40.0445 -40.0350
   -21.0518 -21.0503 -20.4752 -20.4632 -19.4311 -19.4261 -19.4132 -19.4101
   -18.9937 -18.9923 -18.3230 -18.3217 -18.3210 -18.3189 -17.7984 -17.7875
   -12.0709 -12.0689 -12.0683 -12.0672 -11.8842 -11.8749 -11.3322 -11.3310
   -10.2407 -10.2334 -10.1388 -10.1377 -10.1301 -10.1293  -8.5719  -8.5509
    -8.5495  -8.5488  -8.5471  -8.5383  -7.8695  -7.8688  -7.8611  -7.8599
    -7.8277  -7.8203  -7.7751  -7.7440  -7.4931  -7.4907  -6.6173  -6.6091
    -6.3434  -6.3261  -6.2949  -6.2875  -6.1928  -6.1905  -5.7018  -5.6917
    -5.5478  -5.5468  -4.7130  -4.7073  -4.6940  -4.6888  -3.8833  -3.8578
    -1.4144   0.1392   0.8267   1.0026   1.0592   1.1615   1.2506   1.3924
     1.5029   1.5563   1.5725   1.7140   1.7627   1.8738   1.9091   1.9414
     1.9727   2.0940   2.1715   2.1873   2.3223   2.3533

          k =-1.0000 0.0000 0.0000 ( 59292 PWs)   bands (ev):

   -68.6869 -68.6775 -40.3644 -40.2687 -40.1226 -40.1131 -40.0445 -40.0350
   -21.0791 -21.0198 -20.4772 -20.4666 -19.4332 -19.4287 -19.4134 -19.3985
   -19.0169 -18.9703 -18.3877 -18.3129 -18.3050 -18.2803 -17.7982 -17.7897
   -12.1186 -12.0704 -12.0492 -12.0334 -11.8843 -11.8748 -11.3546 -11.3105
   -10.2463 -10.2445 -10.1341 -10.1340 -10.1271 -10.1266  -8.6128  -8.5860
    -8.5536  -8.5336  -8.5177  -8.4889  -7.8807  -7.8720  -7.8648  -7.8629
    -7.8153  -7.8142  -7.7780  -7.7550  -7.5194  -7.4668  -6.6145  -6.6090
    -6.3438  -6.3278  -6.2940  -6.2701  -6.2136  -6.1730  -5.7301  -5.6671
    -5.5712  -5.5234  -4.8110  -4.6870  -4.6705  -4.6386  -3.8784  -3.8651
    -1.4455   0.5075   0.8267   0.9235   1.0227   1.1122   1.2208   1.2673
     1.3503   1.4762   1.6063   1.6392   1.6700   1.7715   1.8632   1.9285
     2.0793   2.1087   2.1748   2.1772   2.3377   2.3643

     the Fermi energy is    -1.1630 ev

!    total energy              =   -1133.82803840 Ry

     total all-electron energy =     -6753.503741 Ry
     estimated scf accuracy    <       0.00000002 Ry
     smearing contrib. (-TS)   =      -0.00000000 Ry
     internal energy E=F+TS    =   -1133.82803840 Ry

     The total energy is F=E-TS. E is the sum of the following terms:
     one-electron contribution =   -3952.99677095 Ry
     hartree contribution      =    2004.65962759 Ry
     xc contribution           =    -186.01869951 Ry
     ewald contribution        =    1359.90474059 Ry
     DFT-D3 Dispersion         =      -0.13401034 Ry
     one-center paw contrib.   =    -359.24292578 Ry

     total magnetization       =    10.00 Bohr mag/cell
     absolute magnetization    =    10.01 Bohr mag/cell

     convergence has been achieved in  15 iterations

     Writing output data file ./mytmp/Crdimer0.1415-0.1.save/
 
     init_run     :     18.43s CPU     19.62s WALL (       1 calls)
     electrons    :    512.46s CPU    545.11s WALL (       1 calls)

     Called by init_run:
     wfcinit      :     13.69s CPU     14.42s WALL (       1 calls)
     potinit      :      1.51s CPU      1.61s WALL (       1 calls)
     hinit0       :      1.52s CPU      1.62s WALL (       1 calls)

     Called by electrons:
     c_bands      :    408.16s CPU    432.01s WALL (      15 calls)
     sum_band     :     80.68s CPU     86.06s WALL (      15 calls)
     v_of_rho     :      4.88s CPU      5.26s WALL (      16 calls)
     newd         :     10.15s CPU     13.25s WALL (      16 calls)
     PAW_pot      :      7.78s CPU      7.89s WALL (      16 calls)
     mix_rho      :      1.06s CPU      1.08s WALL (      15 calls)

     Called by c_bands:
     init_us_2    :      5.39s CPU      5.42s WALL (     930 calls)
     cegterg      :    394.93s CPU    418.71s WALL (     450 calls)

     Called by *egterg:
     cdiaghg      :     25.46s CPU     40.53s WALL (    2840 calls)
     h_psi        :    254.63s CPU    262.92s WALL (    2870 calls)
     s_psi        :     28.51s CPU     28.56s WALL (    2870 calls)
     g_psi        :      0.74s CPU      0.76s WALL (    2390 calls)

     Called by h_psi:
     h_psi:calbec :     29.31s CPU     29.88s WALL (    2870 calls)
     vloc_psi     :    194.37s CPU    202.00s WALL (    2870 calls)
     add_vuspsi   :     28.69s CPU     28.78s WALL (    2870 calls)

     General routines
     calbec       :     39.40s CPU     40.12s WALL (    3320 calls)
     fft          :      4.76s CPU      5.82s WALL (     394 calls)
     ffts         :      0.12s CPU      0.12s WALL (      62 calls)
     fftw         :    200.85s CPU    208.75s WALL (  262656 calls)
     interpolate  :      0.44s CPU      0.47s WALL (      32 calls)
 
     Parallel routines
     fft_scatt_xy :     32.31s CPU     33.42s WALL (  263112 calls)
     fft_scatt_yz :     79.19s CPU     83.78s WALL (  263112 calls)
 
     PWSCF        :   8m52.83s CPU   9m28.78s WALL

 
   This run was terminated on:  13: 3:54   2Apr2021            

=------------------------------------------------------------------------------=
   JOB DONE.
=------------------------------------------------------------------------------=
