
     Program PWSCF v.6.7MaX starts on  2Apr2021 at 12:45:30 

     This program is part of the open-source Quantum ESPRESSO suite
     for quantum simulation of materials; please cite
         "P. Giannozzi et al., J. Phys.:Condens. Matter 21 395502 (2009);
         "P. Giannozzi et al., J. Phys.:Condens. Matter 29 465901 (2017);
          URL http://www.quantum-espresso.org", 
     in publications or presentations arising from this work. More details at
     http://www.quantum-espresso.org/quote

     Parallel version (MPI), running on    48 processors

     MPI processes distributed on     1 nodes
     R & G space division:  proc/nbgrp/npool/nimage =      48
     Reading input from Crdimer0.1415-0.0.scf.in

     Current dimensions of program PWSCF are:
     Max number of different atomic species (ntypx) = 10
     Max number of k-points (npk) =  40000
     Max angular momentum in pseudopotentials (lmaxx) =  3
     file N.pbe-n-kjpaw_psl.1.0.0.UPF: wavefunction(s)  2S renormalized
     file Cr.pbe-spn-kjpaw_psl.1.0.0.UPF: wavefunction(s)  3S 3P 3D renormalized
     file Cr.pbe-spn-kjpaw_psl.1.0.0.UPF: wavefunction(s)  3S 3P 3D renormalized

     --------------------------------------------
     Parameters for DFT-D3 Dispersion Correction:
     --------------------------------------------
       Reference C6 values for interpolation: 

         atom   Coordination number   C6
         B          0.000           214.36
         B          0.971           150.74
         B          1.944           106.23
         B          2.913            62.89
         B          4.586            56.06
         N          0.000            50.54
         N          0.994            44.25
         N          2.014            39.35
         N          2.990            31.16
         Cr1        0.000          1381.48
         Cr1        1.827           571.38
         Cr1       10.619           306.69
         Cr2        0.000          1381.48
         Cr2        1.827           571.38
         Cr2       10.619           306.69

       Values used:

         atom   Coordination number  R0_AB[au]  C6      C8
         B          3.336            3.039     62.89   2505.99
         B          3.336            3.039     62.89   2505.99
         B          3.365            3.039     62.87   2505.20
         B          3.336            3.039     62.89   2505.99
         B          3.340            3.039     62.89   2505.88
         B          3.340            3.039     62.89   2505.88
         N          3.134            2.478     31.22    688.70
         N          3.134            2.478     31.22    688.70
         N          3.158            2.478     31.21    688.49
         N          3.136            2.478     31.22    688.68
         N          3.135            2.478     31.22    688.69
         N          3.134            2.478     31.22    688.69
         N          3.135            2.478     31.22    688.69
         N          3.134            2.478     31.22    688.69
         N          3.142            2.478     31.21    688.62
         B          3.335            3.039     62.89   2506.01
         B          3.336            3.039     62.89   2505.99
         B          3.340            3.039     62.89   2505.88
         B          3.340            3.039     62.89   2505.88
         B          3.336            3.039     62.89   2505.99
         B          3.335            3.039     62.89   2506.01
         N          3.135            2.478     31.22    688.69
         B          3.335            3.039     62.89   2506.01
         B          3.335            3.039     62.89   2506.01
         B          3.359            3.039     62.88   2505.38
         N          3.134            2.478     31.22    688.69
         N          3.134            2.478     31.22    688.70
         N          3.140            2.478     31.22    688.64
         N          3.140            2.478     31.22    688.64
         N          3.158            2.478     31.21    688.49
         N          3.136            2.478     31.22    688.68
         B          3.359            3.039     62.88   2505.38
         Cr1        0.731            3.252   1314.38 121302.46
         Cr2        0.731            3.252   1314.38 121302.47

         Molecular C6 ( Ry / a.u.^6 ) =     78392.55


     Subspace diagonalization in iterative solution of the eigenvalue problem:
     one sub-group per band group will be used
     scalapack distributed-memory algorithm (size of sub-group:  6*  6 procs)

 
     Parallelization info
     --------------------
     sticks:   dense  smooth     PW     G-vecs:    dense   smooth      PW
     Min         235      98     26                36277     9874    1408
     Max         236      99     27                36282     9883    1425
     Sum       11311    4741   1285              1741401   474235   68095
 


     bravais-lattice index     =            4
     lattice parameter (alat)  =      18.9275  a.u.
     unit-cell volume          =   10553.3021 (a.u.)^3
     number of atoms/cell      =           34
     number of atomic types    =            4
     number of electrons       =       156.00
     number of Kohn-Sham states=           94
     kinetic-energy cutoff     =      48.0000  Ry
     charge density cutoff     =     457.0000  Ry
     scf convergence threshold =      1.0E-07
     mixing beta               =       0.5000
     number of iterations used =            8  plain     mixing
     Exchange-correlation= SLA  PW   PBX  PBC
                           (   1   4   3   4   0   0   0)

     celldm(1)=  18.927497  celldm(2)=   0.000000  celldm(3)=   1.797125
     celldm(4)=   0.000000  celldm(5)=   0.000000  celldm(6)=   0.000000

     crystal axes: (cart. coord. in units of alat)
               a(1) = (   1.000000   0.000000   0.000000 )  
               a(2) = (  -0.500000   0.866025   0.000000 )  
               a(3) = (   0.000000   0.000000   1.797125 )  

     reciprocal axes: (cart. coord. in units 2 pi/alat)
               b(1) = (  1.000000  0.577350  0.000000 )  
               b(2) = (  0.000000  1.154701  0.000000 )  
               b(3) = (  0.000000  0.000000  0.556444 )  


     PseudoPot. # 1 for B  read from file:
     /home/sf05/q-e-qe-6.7MaX-Release/pseudo/B.pbe-n-kjpaw_psl.1.0.0.UPF
     MD5 check sum: d9c678ba5d3b2fd7b74e61139c9288d8
     Pseudo is Projector augmented-wave + core cor, Zval =  3.0
     Generated using "atomic" code by A. Dal Corso  v.5.1.2
     Shape of augmentation charge: PSQ
     Using radial grid of 1059 points,  4 beta functions with: 
                l(1) =   0
                l(2) =   0
                l(3) =   1
                l(4) =   1
     Q(r) pseudized with 0 coefficients 


     PseudoPot. # 2 for N  read from file:
     /home/sf05/q-e-qe-6.7MaX-Release/pseudo/N.pbe-n-kjpaw_psl.1.0.0.UPF
     MD5 check sum: e0e4e94a9c4025c5b51bd7d8793849bd
     Pseudo is Projector augmented-wave + core cor, Zval =  5.0
     Generated using "atomic" code by A. Dal Corso  v.5.1.2
     Shape of augmentation charge: PSQ
     Using radial grid of 1085 points,  4 beta functions with: 
                l(1) =   0
                l(2) =   0
                l(3) =   1
                l(4) =   1
     Q(r) pseudized with 0 coefficients 


     PseudoPot. # 3 for Cr read from file:
     /home/sf05/q-e-qe-6.7MaX-Release/pseudo/Cr.pbe-spn-kjpaw_psl.1.0.0.UPF
     MD5 check sum: 198f1a2427a48552563eee314eba32ba
     Pseudo is Projector augmented-wave + core cor, Zval = 14.0
     Generated using &quot;atomic&quot; code by A. Dal Corso  v.6.3
     Shape of augmentation charge: PSQ
     Using radial grid of 1183 points,  6 beta functions with: 
                l(1) =   0
                l(2) =   0
                l(3) =   1
                l(4) =   1
                l(5) =   2
                l(6) =   2
     Q(r) pseudized with 0 coefficients 


     PseudoPot. # 4 for Cr read from file:
     /home/sf05/q-e-qe-6.7MaX-Release/pseudo/Cr.pbe-spn-kjpaw_psl.1.0.0.UPF
     MD5 check sum: 198f1a2427a48552563eee314eba32ba
     Pseudo is Projector augmented-wave + core cor, Zval = 14.0
     Generated using &quot;atomic&quot; code by A. Dal Corso  v.6.3
     Shape of augmentation charge: PSQ
     Using radial grid of 1183 points,  6 beta functions with: 
                l(1) =   0
                l(2) =   0
                l(3) =   1
                l(4) =   1
                l(5) =   2
                l(6) =   2
     Q(r) pseudized with 0 coefficients 


     atomic species   valence    mass     pseudopotential
        B              3.00    10.81100     B ( 1.00)
        N              5.00    14.00674     N ( 1.00)
        Cr1           14.00    51.99610     Cr( 1.00)
        Cr2           14.00    51.99610     Cr( 1.00)

     Starting magnetic structure 
     atomic species   magnetization
        B            0.000
        N            0.000
        Cr1          1.000
        Cr2          1.000

     No symmetry found



   Cartesian axes

     site n.     atom                  positions (alat units)
         1           B   tau(   1) = (  -0.1250000   0.2165064   0.8985623  )
         2           B   tau(   2) = (   0.3750000   0.6495191   0.8985623  )
         3           B   tau(   3) = (   0.2500000   0.0000000   0.8985623  )
         4           B   tau(   4) = (   0.7500000   0.0000000   0.8985623  )
         5           B   tau(   5) = (   0.1250000   0.2165064   0.8985623  )
         6           B   tau(   6) = (  -0.3750000   0.6495191   0.8985623  )
         7           N   tau(   7) = (   0.7500005   0.2886748   0.8985623  )
         8           N   tau(   8) = (   0.3750005   0.5051812   0.8985623  )
         9           N   tau(   9) = (   0.3750005   0.0721685   0.8985623  )
        10           N   tau(  10) = (   0.6250005   0.0721685   0.8985623  )
        11           N   tau(  11) = (   0.2500005   0.2886748   0.8985623  )
        12           N   tau(  12) = (   0.6250005   0.5051812   0.8985623  )
        13           N   tau(  13) = (   0.0000005   0.2886748   0.8985623  )
        14           N   tau(  14) = (   0.2500005   0.7216875   0.8985623  )
        15           N   tau(  15) = (  -0.2499995   0.7216875   0.8985623  )
        16           B   tau(  16) = (   0.0000000   0.4330127   0.8985623  )
        17           B   tau(  17) = (   0.1250000   0.6495191   0.8985623  )
        18           B   tau(  18) = (  -0.1250000   0.6495191   0.8985623  )
        19           B   tau(  19) = (   0.3750000   0.2165064   0.8985623  )
        20           B   tau(  20) = (   0.6250000   0.2165064   0.8985623  )
        21           B   tau(  21) = (   0.5000000   0.4330127   0.8985623  )
        22           N   tau(  22) = (   0.5000005   0.2886748   0.8985623  )
        23           B   tau(  23) = (  -0.2500000   0.4330127   0.8985623  )
        24           B   tau(  24) = (   0.2500000   0.4330127   0.8985623  )
        25           B   tau(  25) = (   0.5000000   0.0000000   0.8985623  )
        26           N   tau(  26) = (  -0.1249995   0.5051812   0.8985623  )
        27           N   tau(  27) = (   0.1250005   0.5051812   0.8985623  )
        28           N   tau(  28) = (   0.0000005   0.7216875   0.8985623  )
        29           N   tau(  29) = (   0.5000005   0.7216875   0.8985623  )
        30           N   tau(  30) = (   0.1250005   0.0721685   0.8985623  )
        31           N   tau(  31) = (   0.8750005   0.0721685   0.8985623  )
        32           B   tau(  32) = (   0.0000000   0.0000000   0.8985623  )
        33           Cr1 tau(  33) = (   0.3915000   0.0000000   1.2040735  )
        34           Cr2 tau(  34) = (   0.1085000   0.0000000   1.2040735  )

     number of k points=    15  Gaussian smearing, width (Ry)=  0.0000
                       cart. coord. in units 2pi/alat
        k(    1) = (   0.1666667   0.2886751   0.0000000), wk =   0.0740741
        k(    2) = (   0.1666667  -0.4811252   0.0000000), wk =   0.0740741
        k(    3) = (   0.1666667  -0.0962250   0.0000000), wk =   0.0740741
        k(    4) = (  -0.5000000  -0.8660254   0.0000000), wk =   0.0370370
        k(    5) = (  -0.1666667   0.2886751   0.0000000), wk =   0.0740741
        k(    6) = (   0.3333333   0.0000000   0.0000000), wk =   0.0740741
        k(    7) = (  -0.1666667  -0.4811252   0.0000000), wk =   0.0740741
        k(    8) = (   0.5000000  -0.0962250   0.0000000), wk =   0.0740741
        k(    9) = (  -0.3333333  -0.3849002   0.0000000), wk =   0.0740741
        k(   10) = (   0.5000000   0.0962250   0.0000000), wk =   0.0740741
        k(   11) = (  -0.3333333   0.3849002   0.0000000), wk =   0.0740741
        k(   12) = (  -0.1666667  -0.0962250   0.0000000), wk =   0.0740741
        k(   13) = (  -0.0000000  -0.1924501   0.0000000), wk =   0.0740741
        k(   14) = (   0.5000000  -0.8660254   0.0000000), wk =   0.0370370
        k(   15) = (  -1.0000000   0.0000000   0.0000000), wk =   0.0370370

     Dense  grid:  1741401 G-vectors     FFT dimensions: ( 135, 135, 240)

     Smooth grid:   474235 G-vectors     FFT dimensions: (  90,  90, 160)

     Estimated max dynamical RAM per process >     218.62 MB

     Estimated total dynamical RAM >      10.25 GB
     Generating pointlists ...
     new r_m :   0.0595 (alat units)  1.1269 (a.u.) for type    1
     new r_m :   0.0595 (alat units)  1.1269 (a.u.) for type    2
     new r_m :   0.1167 (alat units)  2.2095 (a.u.) for type    3
     new r_m :   0.1167 (alat units)  2.2095 (a.u.) for type    4

     Initial potential from superposition of free atoms

     starting charge  155.99382, renormalised to  156.00000

     negative rho (up, down):  6.714E-03 4.655E-04
     Starting wfcs are  148 randomized atomic wfcs
     Checking if some PAW data can be deallocated... 

     total cpu time spent up to now is       20.1 secs

     Self-consistent Calculation

     iteration #  1     ecut=    48.00 Ry     beta= 0.50
     Davidson diagonalization with overlap
     ethr =  1.00E-02,  avg # of iterations =  2.8

     negative rho (up, down):  4.898E-03 2.912E-03

     total cpu time spent up to now is       60.0 secs

     total energy              =   -1130.73750936 Ry
     estimated scf accuracy    <      11.36452098 Ry

     total magnetization       =    12.00 Bohr mag/cell
     absolute magnetization    =    12.12 Bohr mag/cell

     iteration #  2     ecut=    48.00 Ry     beta= 0.50
     Davidson diagonalization with overlap
     ethr =  7.28E-03,  avg # of iterations =  2.8

     negative rho (up, down):  8.772E-03 7.924E-03

     total cpu time spent up to now is       97.2 secs

     total energy              =   -1132.93433084 Ry
     estimated scf accuracy    <       3.73325027 Ry

     total magnetization       =    10.00 Bohr mag/cell
     absolute magnetization    =    10.07 Bohr mag/cell

     iteration #  3     ecut=    48.00 Ry     beta= 0.50
     Davidson diagonalization with overlap
     ethr =  2.39E-03,  avg # of iterations =  7.1

     negative rho (up, down):  4.131E-03 3.917E-03

     total cpu time spent up to now is      135.3 secs

     total energy              =   -1133.56665592 Ry
     estimated scf accuracy    <       0.85395238 Ry

     total magnetization       =    11.04 Bohr mag/cell
     absolute magnetization    =    11.10 Bohr mag/cell

     iteration #  4     ecut=    48.00 Ry     beta= 0.50
     Davidson diagonalization with overlap
     ethr =  5.47E-04,  avg # of iterations =  6.7

     negative rho (up, down):  7.143E-03 7.484E-03

     total cpu time spent up to now is      171.4 secs

     total energy              =   -1133.76868282 Ry
     estimated scf accuracy    <       0.50586974 Ry

     total magnetization       =    10.00 Bohr mag/cell
     absolute magnetization    =    10.01 Bohr mag/cell

     iteration #  5     ecut=    48.00 Ry     beta= 0.50
     Davidson diagonalization with overlap
     ethr =  3.24E-04,  avg # of iterations =  6.0

     negative rho (up, down):  4.693E-03 4.309E-03

     total cpu time spent up to now is      209.0 secs

     total energy              =   -1133.80651390 Ry
     estimated scf accuracy    <       0.13677732 Ry

     total magnetization       =    10.00 Bohr mag/cell
     absolute magnetization    =    10.01 Bohr mag/cell

     iteration #  6     ecut=    48.00 Ry     beta= 0.50
     Davidson diagonalization with overlap
     ethr =  8.77E-05,  avg # of iterations =  6.2

     negative rho (up, down):  3.747E-03 3.921E-03

     total cpu time spent up to now is      246.3 secs

     total energy              =   -1133.82282157 Ry
     estimated scf accuracy    <       0.02265768 Ry

     total magnetization       =    10.00 Bohr mag/cell
     absolute magnetization    =    10.02 Bohr mag/cell

     iteration #  7     ecut=    48.00 Ry     beta= 0.50
     Davidson diagonalization with overlap
     ethr =  1.45E-05,  avg # of iterations =  9.9

     negative rho (up, down):  3.297E-03 3.792E-03

     total cpu time spent up to now is      287.0 secs

     total energy              =   -1133.82716930 Ry
     estimated scf accuracy    <       0.00533277 Ry

     total magnetization       =    10.00 Bohr mag/cell
     absolute magnetization    =    10.01 Bohr mag/cell

     iteration #  8     ecut=    48.00 Ry     beta= 0.50
     Davidson diagonalization with overlap
     ethr =  3.42E-06,  avg # of iterations =  5.5

     negative rho (up, down):  3.201E-03 3.787E-03

     total cpu time spent up to now is      322.0 secs

     total energy              =   -1133.82808736 Ry
     estimated scf accuracy    <       0.00060803 Ry

     total magnetization       =    10.00 Bohr mag/cell
     absolute magnetization    =    10.01 Bohr mag/cell

     iteration #  9     ecut=    48.00 Ry     beta= 0.50
     Davidson diagonalization with overlap
     ethr =  3.90E-07,  avg # of iterations =  5.3

     negative rho (up, down):  3.144E-03 3.777E-03

     total cpu time spent up to now is      357.0 secs

     total energy              =   -1133.82825562 Ry
     estimated scf accuracy    <       0.00009712 Ry

     total magnetization       =    10.00 Bohr mag/cell
     absolute magnetization    =    10.01 Bohr mag/cell

     iteration # 10     ecut=    48.00 Ry     beta= 0.50
     Davidson diagonalization with overlap
     ethr =  6.23E-08,  avg # of iterations =  3.3

     negative rho (up, down):  3.129E-03 3.789E-03

     total cpu time spent up to now is      394.3 secs

     total energy              =   -1133.82831131 Ry
     estimated scf accuracy    <       0.00001501 Ry

     total magnetization       =    10.00 Bohr mag/cell
     absolute magnetization    =    10.01 Bohr mag/cell

     iteration # 11     ecut=    48.00 Ry     beta= 0.50
     Davidson diagonalization with overlap
     ethr =  9.62E-09,  avg # of iterations =  4.9

     negative rho (up, down):  3.121E-03 3.796E-03

     total cpu time spent up to now is      430.0 secs

     total energy              =   -1133.82832679 Ry
     estimated scf accuracy    <       0.00000313 Ry

     total magnetization       =    10.00 Bohr mag/cell
     absolute magnetization    =    10.01 Bohr mag/cell

     iteration # 12     ecut=    48.00 Ry     beta= 0.50
     Davidson diagonalization with overlap
     ethr =  2.01E-09,  avg # of iterations =  4.3

     negative rho (up, down):  3.118E-03 3.804E-03

     total cpu time spent up to now is      463.8 secs

     total energy              =   -1133.82833121 Ry
     estimated scf accuracy    <       0.00000161 Ry

     total magnetization       =    10.00 Bohr mag/cell
     absolute magnetization    =    10.01 Bohr mag/cell

     iteration # 13     ecut=    48.00 Ry     beta= 0.50
     Davidson diagonalization with overlap
     ethr =  1.03E-09,  avg # of iterations =  4.6

     negative rho (up, down):  3.115E-03 3.808E-03

     total cpu time spent up to now is      496.4 secs

     total energy              =   -1133.82833300 Ry
     estimated scf accuracy    <       0.00000028 Ry

     total magnetization       =    10.00 Bohr mag/cell
     absolute magnetization    =    10.01 Bohr mag/cell

     iteration # 14     ecut=    48.00 Ry     beta= 0.50
     Davidson diagonalization with overlap
     ethr =  1.80E-10,  avg # of iterations =  4.7

     negative rho (up, down):  3.114E-03 3.809E-03
 
     Magnetic moment per site:
     atom:    1    charge:    0.8805    magn:    0.0001    constr:    0.0000
     atom:    2    charge:    0.8806    magn:    0.0004    constr:    0.0000
     atom:    3    charge:    0.8792    magn:    0.0001    constr:    0.0000
     atom:    4    charge:    0.8808    magn:    0.0002    constr:    0.0000
     atom:    5    charge:    0.8801    magn:    0.0008    constr:    0.0000
     atom:    6    charge:    0.8800    magn:    0.0001    constr:    0.0000
     atom:    7    charge:    2.8610    magn:    0.0000    constr:    0.0000
     atom:    8    charge:    2.8609    magn:    0.0002    constr:    0.0000
     atom:    9    charge:    2.8610    magn:    0.0064    constr:    0.0000
     atom:   10    charge:    2.8609    magn:    0.0014    constr:    0.0000
     atom:   11    charge:    2.8607    magn:    0.0009    constr:    0.0000
     atom:   12    charge:    2.8609    magn:    0.0003    constr:    0.0000
     atom:   13    charge:    2.8599    magn:    0.0007    constr:    0.0000
     atom:   14    charge:    2.8599    magn:    0.0004    constr:    0.0000
     atom:   15    charge:    2.8594    magn:    0.0047    constr:    0.0000
     atom:   16    charge:    0.8800    magn:    0.0001    constr:    0.0000
     atom:   17    charge:    0.8803    magn:    0.0004    constr:    0.0000
     atom:   18    charge:    0.8797    magn:    0.0001    constr:    0.0000
     atom:   19    charge:    0.8796    magn:    0.0008    constr:    0.0000
     atom:   20    charge:    0.8799    magn:    0.0001    constr:    0.0000
     atom:   21    charge:    0.8797    magn:    0.0001    constr:    0.0000
     atom:   22    charge:    2.8611    magn:    0.0007    constr:    0.0000
     atom:   23    charge:    0.8798    magn:    0.0001    constr:    0.0000
     atom:   24    charge:    0.8799    magn:    0.0001    constr:    0.0000
     atom:   25    charge:    0.8807    magn:   -0.0000    constr:    0.0000
     atom:   26    charge:    2.8597    magn:    0.0003    constr:    0.0000
     atom:   27    charge:    2.8598    magn:    0.0002    constr:    0.0000
     atom:   28    charge:    2.8595    magn:    0.0040    constr:    0.0000
     atom:   29    charge:    2.8593    magn:    0.0040    constr:    0.0000
     atom:   30    charge:    2.8597    magn:    0.0064    constr:    0.0000
     atom:   31    charge:    2.8596    magn:    0.0014    constr:    0.0000
     atom:   32    charge:    0.8809    magn:   -0.0000    constr:    0.0000
     atom:   33    charge:   12.5177    magn:    4.2354    constr:    0.0000
     atom:   34    charge:   12.5175    magn:    4.2353    constr:    0.0000

     total cpu time spent up to now is      530.8 secs

     End of self-consistent calculation

 ------ SPIN UP ------------


          k = 0.1667 0.2887 0.0000 ( 59267 PWs)   bands (ev):

   -72.8820 -72.8739 -44.4357 -44.3550 -44.2811 -44.2732 -44.2550 -44.2471
   -21.2474 -20.6607 -20.6567 -20.1051 -20.0970 -19.5870 -19.5845 -19.1000
   -18.6980 -18.6921 -18.4584 -18.4509 -18.1956 -18.0859 -18.0788 -17.8503
   -12.4845 -12.2077 -12.2015 -11.8215 -11.8184 -11.6592 -11.1920 -11.1900
   -10.3925 -10.3682 -10.1184 -10.1154  -9.5896  -9.5886  -8.8373  -8.8266
    -8.8230  -8.7663  -8.7630  -8.5971  -8.1977  -8.0539  -8.0143  -7.8300
    -7.8275  -7.4396  -7.4372  -7.2831  -7.2584  -7.2083  -7.2075  -6.9620
    -6.9551  -6.5684  -6.5365  -6.1544  -6.1536  -5.8723  -5.4192  -5.2973
    -5.2738  -5.2009  -4.9128  -4.9009  -4.5083  -4.3579  -4.3397  -3.9801
    -2.8809  -2.0416  -2.0199  -1.8346  -1.6364  -1.5808  -1.4807  -1.4677
    -1.3736  -1.3662  -1.3173  -0.7361   0.6773   0.8525   1.0529   1.2020
     1.2981   1.4826   1.5198   1.5745   1.6094   1.7977

          k = 0.1667-0.4811 0.0000 ( 59291 PWs)   bands (ev):

   -72.8820 -72.8739 -44.4357 -44.3550 -44.2811 -44.2732 -44.2550 -44.2471
   -21.1170 -20.9126 -20.7234 -20.1614 -19.8048 -19.4671 -19.3175 -19.1753
   -19.0149 -18.7792 -18.6422 -18.5448 -18.1498 -18.0898 -17.9227 -17.7245
   -12.3486 -12.1138 -12.0452 -11.9069 -11.6810 -11.6596 -11.5532 -10.9427
   -10.8907 -10.6240 -10.5237  -9.8609  -9.6938  -9.3367  -9.1115  -8.6685
    -8.6234  -8.5538  -8.3896  -8.3677  -8.1622  -8.1231  -8.0633  -8.0508
    -7.6893  -7.6240  -7.4948  -7.4749  -7.3566  -7.1715  -7.0683  -6.8610
    -6.6227  -6.3895  -6.1785  -6.1585  -5.9726  -5.9299  -5.7843  -5.7457
    -5.4521  -5.3975  -5.2099  -5.0423  -4.4457  -4.3484  -4.0896  -3.7679
    -2.8781  -2.0413  -2.0206  -1.8311  -1.6347  -1.5806  -1.4833  -1.4681
    -1.3735  -1.3659  -1.3193  -0.7406   0.5910   0.8411   1.0726   1.1152
     1.2445   1.2733   1.3975   1.8413   1.9287   2.1106

          k = 0.1667-0.0962 0.0000 ( 59226 PWs)   bands (ev):

   -72.8820 -72.8739 -44.4357 -44.3550 -44.2811 -44.2732 -44.2550 -44.2470
   -21.3138 -20.5361 -20.3475 -20.3378 -19.9907 -19.9796 -19.8064 -18.7317
   -18.7210 -18.3765 -18.3682 -18.3553 -18.2704 -18.2619 -18.0793 -18.0707
   -12.5086 -12.5021 -12.4086 -11.5827 -11.5759 -11.4278 -11.4204 -10.9271
   -10.9239  -9.9305  -9.9262  -9.6763  -9.3755  -9.3729  -9.2311  -9.2284
    -9.0429  -9.0408  -8.9240  -8.3249  -8.3215  -7.9023  -7.8999  -7.8813
    -7.8457  -7.7710  -7.6114  -7.5806  -7.1379  -7.0898  -6.9599  -6.8892
    -6.8855  -6.8514  -6.5327  -6.5281  -6.2581  -5.3540  -5.3144  -5.1440
    -5.0659  -4.8099  -4.8007  -4.7488  -4.6159  -4.6077  -4.3560  -4.3297
    -2.8840  -2.0419  -2.0194  -1.8381  -1.6389  -1.5809  -1.4784  -1.4672
    -1.3736  -1.3666  -1.3156  -0.7315   0.7822   0.8445   1.0044   1.2111
     1.2600   1.3486   1.5833   1.6023   1.7305   1.9457

          k =-0.5000-0.8660 0.0000 ( 59292 PWs)   bands (ev):

   -72.8820 -72.8739 -44.4357 -44.3550 -44.2811 -44.2732 -44.2550 -44.2471
   -21.0499 -21.0475 -20.4720 -20.4625 -19.4298 -19.4195 -19.4144 -19.4085
   -18.9925 -18.9899 -18.3259 -18.3207 -18.3167 -18.3150 -17.7961 -17.7873
   -12.0714 -12.0659 -12.0634 -12.0619 -11.8804 -11.8719 -11.3296 -11.3281
   -10.2367 -10.2308 -10.1368 -10.1334 -10.1301 -10.1258  -8.5909  -8.5504
    -8.5475  -8.5452  -8.5446  -8.5386  -7.8657  -7.8640  -7.8591  -7.8574
    -7.8258  -7.8197  -7.7838  -7.7516  -7.4902  -7.4874  -6.6137  -6.6067
    -6.3626  -6.3319  -6.3060  -6.2929  -6.1902  -6.1886  -5.7121  -5.6969
    -5.5460  -5.5427  -4.7297  -4.7209  -4.6962  -4.6915  -3.8914  -3.8653
    -2.8659  -2.0393  -2.0200  -1.8326  -1.6370  -1.5801  -1.4837  -1.4681
    -1.3788  -1.3699  -1.3223  -0.8591   0.7747   0.9984   1.1202   1.1598
     1.3673   1.5697   1.5861   1.6063   1.7346   1.7538

          k =-0.1667 0.2887 0.0000 ( 59267 PWs)   bands (ev):

   -72.8820 -72.8739 -44.4357 -44.3550 -44.2811 -44.2732 -44.2550 -44.2471
   -21.2474 -20.6607 -20.6567 -20.1051 -20.0969 -19.5870 -19.5845 -19.1000
   -18.6979 -18.6922 -18.4584 -18.4509 -18.1956 -18.0859 -18.0788 -17.8503
   -12.4845 -12.2077 -12.2015 -11.8215 -11.8184 -11.6592 -11.1919 -11.1900
   -10.3925 -10.3682 -10.1184 -10.1155  -9.5896  -9.5886  -8.8373  -8.8265
    -8.8230  -8.7663  -8.7630  -8.5971  -8.1978  -8.0539  -8.0143  -7.8300
    -7.8275  -7.4396  -7.4372  -7.2831  -7.2584  -7.2083  -7.2075  -6.9621
    -6.9552  -6.5684  -6.5365  -6.1544  -6.1535  -5.8723  -5.4193  -5.2973
    -5.2738  -5.2008  -4.9128  -4.9009  -4.5083  -4.3579  -4.3397  -3.9801
    -2.8809  -2.0416  -2.0199  -1.8346  -1.6364  -1.5808  -1.4807  -1.4677
    -1.3736  -1.3662  -1.3173  -0.7361   0.6773   0.8525   1.0529   1.2020
     1.2981   1.4825   1.5198   1.5745   1.6093   1.7977

          k = 0.3333 0.0000 0.0000 ( 59267 PWs)   bands (ev):

   -72.8820 -72.8739 -44.4357 -44.3550 -44.2812 -44.2732 -44.2550 -44.2471
   -21.2469 -20.6860 -20.6313 -20.1059 -20.0945 -19.6138 -19.5598 -19.1021
   -18.7141 -18.6708 -18.4617 -18.4494 -18.1908 -18.1090 -18.0626 -17.8494
   -12.4842 -12.2089 -12.2000 -11.8300 -11.8122 -11.6569 -11.2105 -11.1721
   -10.3916 -10.3680 -10.1310 -10.1031  -9.5960  -9.5811  -8.8454  -8.8237
    -8.8152  -8.7887  -8.7421  -8.5980  -8.1996  -8.1022  -7.9654  -7.8290
    -7.8264  -7.4452  -7.4309  -7.2940  -7.2422  -7.2185  -7.1971  -6.9646
    -6.9542  -6.6185  -6.4936  -6.1573  -6.1498  -5.8787  -5.4191  -5.3114
    -5.2491  -5.2011  -4.9212  -4.8950  -4.4995  -4.3846  -4.3257  -3.9785
    -2.8732  -2.0399  -2.0193  -1.8357  -1.6388  -1.5804  -1.4807  -1.4676
    -1.3770  -1.3689  -1.3191  -0.8187   0.8199   0.9918   1.0782   1.2472
     1.3217   1.4989   1.5163   1.5561   1.5886   1.8311

          k =-0.1667-0.4811 0.0000 ( 59291 PWs)   bands (ev):

   -72.8820 -72.8739 -44.4357 -44.3550 -44.2811 -44.2732 -44.2550 -44.2471
   -21.1170 -20.9126 -20.7234 -20.1614 -19.8048 -19.4671 -19.3175 -19.1753
   -19.0149 -18.7792 -18.6422 -18.5448 -18.1498 -18.0898 -17.9227 -17.7245
   -12.3486 -12.1137 -12.0452 -11.9069 -11.6810 -11.6596 -11.5532 -10.9427
   -10.8907 -10.6240 -10.5236  -9.8609  -9.6938  -9.3368  -9.1115  -8.6685
    -8.6234  -8.5538  -8.3896  -8.3677  -8.1621  -8.1231  -8.0634  -8.0508
    -7.6893  -7.6240  -7.4947  -7.4749  -7.3566  -7.1714  -7.0683  -6.8610
    -6.6228  -6.3896  -6.1786  -6.1585  -5.9726  -5.9298  -5.7843  -5.7457
    -5.4522  -5.3975  -5.2099  -5.0423  -4.4457  -4.3484  -4.0896  -3.7679
    -2.8781  -2.0413  -2.0206  -1.8311  -1.6347  -1.5806  -1.4833  -1.4681
    -1.3735  -1.3659  -1.3193  -0.7406   0.5909   0.8411   1.0726   1.1152
     1.2445   1.2733   1.3975   1.8413   1.9288   2.1105

          k = 0.5000-0.0962 0.0000 ( 59291 PWs)   bands (ev):

   -72.8820 -72.8739 -44.4357 -44.3550 -44.2811 -44.2732 -44.2550 -44.2471
   -21.1142 -20.9202 -20.7185 -20.1595 -19.8049 -19.4693 -19.3233 -19.1703
   -19.0160 -18.7804 -18.6315 -18.5510 -18.1373 -18.1068 -17.9198 -17.7242
   -12.3476 -12.1143 -12.0432 -11.9109 -11.6931 -11.6448 -11.5556 -10.9429
   -10.8886 -10.6223 -10.5261  -9.8585  -9.6945  -9.3378  -9.1109  -8.6581
    -8.6240  -8.5516  -8.4004  -8.3919  -8.1601  -8.1034  -8.0766  -8.0389
    -7.6852  -7.6245  -7.4938  -7.4760  -7.3503  -7.1729  -7.0692  -6.8603
    -6.6232  -6.3990  -6.1948  -6.1579  -5.9572  -5.9291  -5.7836  -5.7486
    -5.4532  -5.3982  -5.1865  -5.0567  -4.4236  -4.3765  -4.0863  -3.7672
    -2.8660  -2.0392  -2.0200  -1.8327  -1.6375  -1.5801  -1.4837  -1.4681
    -1.3788  -1.3699  -1.3224  -0.8589   0.7617   0.9940   1.1067   1.1585
     1.3012   1.3171   1.5543   1.7529   1.8399   1.9212

          k =-0.3333-0.3849 0.0000 ( 59291 PWs)   bands (ev):

   -72.8820 -72.8739 -44.4357 -44.3550 -44.2811 -44.2732 -44.2550 -44.2471
   -21.1152 -20.9175 -20.7204 -20.1593 -19.8070 -19.4672 -19.3181 -19.1739
   -19.0189 -18.7786 -18.6330 -18.5502 -18.1400 -18.1035 -17.9200 -17.7244
   -12.3481 -12.1124 -12.0455 -11.9099 -11.6820 -11.6573 -11.5544 -10.9428
   -10.8882 -10.6217 -10.5270  -9.8593  -9.6946  -9.3371  -9.1118  -8.6614
    -8.6227  -8.5537  -8.3917  -8.3865  -8.1616  -8.1109  -8.0634  -8.0534
    -7.6855  -7.6230  -7.5006  -7.4698  -7.3489  -7.1730  -7.0698  -6.8685
    -6.6211  -6.3907  -6.1791  -6.1601  -5.9698  -5.9280  -5.7837  -5.7574
    -5.4531  -5.3928  -5.1873  -5.0572  -4.4262  -4.3738  -4.0857  -3.7675
    -2.8700  -2.0401  -2.0203  -1.8321  -1.6363  -1.5803  -1.4834  -1.4682
    -1.3770  -1.3686  -1.3213  -0.8228   0.7013   0.9578   1.1022   1.1468
     1.2327   1.3810   1.4322   1.8053   1.9028   1.9185

          k = 0.5000 0.0962 0.0000 ( 59291 PWs)   bands (ev):

   -72.8820 -72.8739 -44.4357 -44.3550 -44.2811 -44.2732 -44.2550 -44.2471
   -21.1142 -20.9202 -20.7185 -20.1595 -19.8049 -19.4693 -19.3233 -19.1703
   -19.0160 -18.7804 -18.6315 -18.5510 -18.1373 -18.1068 -17.9198 -17.7242
   -12.3476 -12.1143 -12.0432 -11.9109 -11.6931 -11.6448 -11.5556 -10.9429
   -10.8886 -10.6223 -10.5262  -9.8585  -9.6945  -9.3378  -9.1109  -8.6581
    -8.6240  -8.5517  -8.4004  -8.3919  -8.1601  -8.1034  -8.0765  -8.0389
    -7.6853  -7.6245  -7.4938  -7.4761  -7.3503  -7.1730  -7.0691  -6.8603
    -6.6231  -6.3990  -6.1948  -6.1578  -5.9572  -5.9291  -5.7837  -5.7486
    -5.4532  -5.3983  -5.1865  -5.0566  -4.4236  -4.3765  -4.0864  -3.7672
    -2.8660  -2.0392  -2.0200  -1.8327  -1.6375  -1.5801  -1.4837  -1.4681
    -1.3788  -1.3699  -1.3224  -0.8589   0.7617   0.9941   1.1067   1.1585
     1.3012   1.3171   1.5544   1.7529   1.8399   1.9212

          k =-0.3333 0.3849 0.0000 ( 59291 PWs)   bands (ev):

   -72.8820 -72.8739 -44.4357 -44.3550 -44.2811 -44.2732 -44.2550 -44.2471
   -21.1152 -20.9175 -20.7204 -20.1593 -19.8070 -19.4672 -19.3181 -19.1739
   -19.0189 -18.7786 -18.6330 -18.5502 -18.1400 -18.1035 -17.9200 -17.7244
   -12.3481 -12.1124 -12.0455 -11.9099 -11.6820 -11.6573 -11.5544 -10.9428
   -10.8881 -10.6217 -10.5270  -9.8593  -9.6945  -9.3371  -9.1118  -8.6614
    -8.6227  -8.5537  -8.3917  -8.3865  -8.1617  -8.1109  -8.0633  -8.0534
    -7.6855  -7.6230  -7.5006  -7.4698  -7.3489  -7.1730  -7.0698  -6.8685
    -6.6212  -6.3907  -6.1791  -6.1602  -5.9698  -5.9281  -5.7836  -5.7574
    -5.4530  -5.3928  -5.1873  -5.0572  -4.4262  -4.3738  -4.0857  -3.7675
    -2.8700  -2.0401  -2.0203  -1.8321  -1.6363  -1.5803  -1.4834  -1.4682
    -1.3770  -1.3686  -1.3213  -0.8228   0.7013   0.9577   1.1022   1.1468
     1.2327   1.3810   1.4322   1.8053   1.9028   1.9183

          k =-0.1667-0.0962 0.0000 ( 59226 PWs)   bands (ev):

   -72.8820 -72.8739 -44.4357 -44.3550 -44.2811 -44.2732 -44.2550 -44.2470
   -21.3138 -20.5361 -20.3475 -20.3379 -19.9907 -19.9796 -19.8064 -18.7317
   -18.7210 -18.3765 -18.3682 -18.3553 -18.2704 -18.2619 -18.0793 -18.0707
   -12.5086 -12.5021 -12.4086 -11.5827 -11.5759 -11.4278 -11.4204 -10.9271
   -10.9239  -9.9305  -9.9262  -9.6762  -9.3755  -9.3729  -9.2311  -9.2284
    -9.0429  -9.0408  -8.9240  -8.3249  -8.3215  -7.9023  -7.8999  -7.8813
    -7.8456  -7.7710  -7.6114  -7.5806  -7.1379  -7.0898  -6.9600  -6.8892
    -6.8855  -6.8514  -6.5327  -6.5281  -6.2582  -5.3541  -5.3144  -5.1439
    -5.0660  -4.8098  -4.8007  -4.7489  -4.6159  -4.6077  -4.3560  -4.3297
    -2.8840  -2.0419  -2.0194  -1.8381  -1.6389  -1.5809  -1.4784  -1.4672
    -1.3736  -1.3666  -1.3156  -0.7315   0.7822   0.8445   1.0044   1.2111
     1.2600   1.3486   1.5833   1.6024   1.7304   1.9467

          k =-0.0000-0.1925 0.0000 ( 59226 PWs)   bands (ev):

   -72.8820 -72.8739 -44.4357 -44.3549 -44.2811 -44.2732 -44.2550 -44.2471
   -21.3139 -20.5311 -20.3541 -20.3402 -19.9876 -19.9752 -19.8099 -18.7310
   -18.7181 -18.3941 -18.3733 -18.3527 -18.2553 -18.2553 -18.0834 -18.0717
   -12.5099 -12.5009 -12.4085 -11.5847 -11.5756 -11.4269 -11.4181 -10.9286
   -10.9243  -9.9295  -9.9270  -9.6767  -9.3760  -9.3712  -9.2306  -9.2294
    -9.0428  -9.0412  -8.9247  -8.3243  -8.3212  -7.9012  -7.8992  -7.8644
    -7.8441  -7.7728  -7.6335  -7.5925  -7.1133  -7.0875  -6.9585  -6.8908
    -6.8855  -6.8631  -6.5330  -6.5270  -6.2588  -5.3443  -5.3159  -5.1441
    -5.0658  -4.8367  -4.8079  -4.7523  -4.5957  -4.5893  -4.3577  -4.3371
    -2.8878  -2.0428  -2.0197  -1.8375  -1.6377  -1.5811  -1.4788  -1.4671
    -1.3719  -1.3652  -1.3148  -0.6833   0.6681   0.8045   0.9943   1.1827
     1.2479   1.3796   1.5793   1.6189   1.6874   2.0024

          k = 0.5000-0.8660 0.0000 ( 59292 PWs)   bands (ev):

   -72.8820 -72.8739 -44.4357 -44.3550 -44.2811 -44.2732 -44.2550 -44.2471
   -21.0499 -21.0475 -20.4720 -20.4625 -19.4299 -19.4194 -19.4144 -19.4085
   -18.9924 -18.9900 -18.3259 -18.3208 -18.3168 -18.3150 -17.7961 -17.7873
   -12.0714 -12.0660 -12.0635 -12.0619 -11.8804 -11.8719 -11.3295 -11.3281
   -10.2367 -10.2309 -10.1368 -10.1334 -10.1301 -10.1258  -8.5909  -8.5504
    -8.5475  -8.5453  -8.5446  -8.5385  -7.8657  -7.8640  -7.8591  -7.8574
    -7.8258  -7.8198  -7.7838  -7.7516  -7.4903  -7.4874  -6.6136  -6.6067
    -6.3626  -6.3318  -6.3060  -6.2929  -6.1901  -6.1885  -5.7121  -5.6969
    -5.5461  -5.5427  -4.7297  -4.7208  -4.6962  -4.6915  -3.8914  -3.8653
    -2.8659  -2.0393  -2.0200  -1.8326  -1.6370  -1.5801  -1.4837  -1.4681
    -1.3788  -1.3699  -1.3223  -0.8591   0.7747   0.9984   1.1203   1.1599
     1.3672   1.5697   1.5860   1.6064   1.7347   1.7538

          k =-1.0000 0.0000 0.0000 ( 59292 PWs)   bands (ev):

   -72.8820 -72.8739 -44.4357 -44.3550 -44.2811 -44.2732 -44.2550 -44.2470
   -21.0747 -21.0198 -20.4764 -20.4628 -19.4246 -19.4212 -19.4202 -19.4002
   -19.0133 -18.9706 -18.3714 -18.3357 -18.2918 -18.2805 -17.7983 -17.7868
   -12.1026 -12.0816 -12.0396 -12.0348 -11.8822 -11.8709 -11.3509 -11.3090
   -10.2424 -10.2398 -10.1327 -10.1315 -10.1249 -10.1239  -8.6323  -8.5751
    -8.5581  -8.5280  -8.5173  -8.4913  -7.8756  -7.8696  -7.8609  -7.8604
    -7.8169  -7.8141  -7.7902  -7.7589  -7.5141  -7.4658  -6.6129  -6.6046
    -6.3565  -6.3293  -6.3087  -6.2795  -6.2089  -6.1726  -5.7380  -5.6778
    -5.5669  -5.5223  -4.7948  -4.7536  -4.6491  -4.6441  -3.8889  -3.8699
    -2.8821  -2.0417  -2.0205  -1.8306  -1.6340  -1.5808  -1.4835  -1.4678
    -1.3718  -1.3646  -1.3183  -0.6933   0.5483   0.7584   1.0649   1.1145
     1.1896   1.5482   1.5766   1.5998   1.6415   1.9379

 ------ SPIN DOWN ----------


          k = 0.1667 0.2887 0.0000 ( 59267 PWs)   bands (ev):

   -68.6857 -68.6762 -40.3724 -40.2767 -40.1007 -40.0912 -40.0545 -40.0450
   -21.2436 -20.6568 -20.6533 -20.1010 -20.0936 -19.5836 -19.5806 -19.0962
   -18.6932 -18.6884 -18.4542 -18.4473 -18.1909 -18.0820 -18.0757 -17.8463
   -12.4823 -12.2049 -12.1994 -11.8191 -11.8163 -11.6571 -11.1894 -11.1876
   -10.3898 -10.3658 -10.1153 -10.1131  -9.5870  -9.5865  -8.8248  -8.8206
    -8.8167  -8.7641  -8.7606  -8.5948  -8.1955  -8.0304  -8.0048  -7.8275
    -7.8253  -7.4361  -7.4345  -7.2638  -7.2458  -7.2062  -7.2049  -6.9595
    -6.9530  -6.5476  -6.5284  -6.1517  -6.1512  -5.8564  -5.4162  -5.2745
    -5.2624  -5.1982  -4.8982  -4.8887  -4.4911  -4.3426  -4.3314  -3.9665
    -1.4500   0.3858   0.7992   0.9986   1.1278   1.1905   1.2705   1.3506
     1.4230   1.4915   1.5539   1.6035   1.6348   1.7435   1.9043   1.9743
     2.0422   2.0952   2.1453   2.1845   2.2939   2.3401

          k = 0.1667-0.4811 0.0000 ( 59291 PWs)   bands (ev):

   -68.6857 -68.6762 -40.3724 -40.2767 -40.1006 -40.0912 -40.0545 -40.0450
   -21.1130 -20.9094 -20.7197 -20.1576 -19.8012 -19.4634 -19.3138 -19.1713
   -19.0111 -18.7756 -18.6370 -18.5417 -18.1442 -18.0877 -17.9187 -17.7205
   -12.3463 -12.1114 -12.0430 -11.9047 -11.6790 -11.6570 -11.5509 -10.9401
   -10.8880 -10.6214 -10.5213  -9.8580  -9.6915  -9.3339  -9.1091  -8.6458
    -8.6209  -8.5508  -8.3874  -8.3561  -8.1597  -8.1065  -8.0611  -8.0485
    -7.6866  -7.6216  -7.4923  -7.4727  -7.3394  -7.1686  -7.0660  -6.8456
    -6.6196  -6.3744  -6.1626  -6.1560  -5.9578  -5.9268  -5.7817  -5.7308
    -5.4496  -5.3833  -5.1881  -5.0332  -4.4251  -4.3420  -4.0761  -3.7546
    -1.4408   0.3735   0.7948   0.9610   1.0490   1.1366   1.2116   1.2837
     1.3690   1.4183   1.5710   1.7319   1.7977   1.8785   1.9063   2.0727
     2.1149   2.1389   2.1644   2.2229   2.3082   2.3380

          k = 0.1667-0.0962 0.0000 ( 59226 PWs)   bands (ev):

   -68.6857 -68.6762 -40.3724 -40.2767 -40.1007 -40.0911 -40.0545 -40.0450
   -21.3101 -20.5320 -20.3439 -20.3348 -19.9861 -19.9764 -19.8032 -18.7269
   -18.7174 -18.3717 -18.3645 -18.3516 -18.2659 -18.2581 -18.0755 -18.0676
   -12.5059 -12.5001 -12.4063 -11.5802 -11.5740 -11.4250 -11.4183 -10.9245
   -10.9216  -9.9278  -9.9240  -9.6735  -9.3730  -9.3705  -9.2280  -9.2257
    -9.0405  -9.0385  -8.9059  -8.3217  -8.3187  -7.8996  -7.8974  -7.8601
    -7.8418  -7.7687  -7.5952  -7.5705  -7.1135  -7.0793  -6.9573  -6.8866
    -6.8834  -6.8413  -6.5300  -6.5259  -6.2557  -5.3308  -5.3029  -5.1412
    -5.0633  -4.7915  -4.7845  -4.7375  -4.6021  -4.5949  -4.3405  -4.3206
    -1.4593   0.4000   0.8049   0.9951   1.0905   1.1548   1.2123   1.3223
     1.4699   1.5365   1.6043   1.6921   1.7808   1.8614   1.8919   1.9372
     1.9809   2.0564   2.1290   2.1384   2.2481   2.3108

          k =-0.5000-0.8660 0.0000 ( 59292 PWs)   bands (ev):

   -68.6857 -68.6762 -40.3724 -40.2768 -40.1007 -40.0912 -40.0545 -40.0450
   -21.0461 -21.0438 -20.4682 -20.4594 -19.4246 -19.4155 -19.4111 -19.4053
   -18.9889 -18.9862 -18.3202 -18.3178 -18.3151 -18.3093 -17.7918 -17.7838
   -12.0676 -12.0644 -12.0622 -12.0590 -11.8779 -11.8703 -11.3270 -11.3258
   -10.2338 -10.2288 -10.1336 -10.1307 -10.1275 -10.1237  -8.5634  -8.5450
    -8.5444  -8.5434  -8.5419  -8.5321  -7.8630  -7.8613  -7.8571  -7.8553
    -7.8221  -7.8166  -7.7667  -7.7412  -7.4884  -7.4847  -6.6105  -6.6046
    -6.3333  -6.3130  -6.2957  -6.2839  -6.1879  -6.1853  -5.6945  -5.6878
    -5.5436  -5.5399  -4.7081  -4.6986  -4.6884  -4.6857  -3.8750  -3.8555
    -1.4174   0.1365   0.7993   1.0500   1.0695   1.1430   1.2860   1.4222
     1.5171   1.5374   1.5901   1.6986   1.7610   1.8742   1.9230   1.9528
     1.9818   2.0474   2.1605   2.2207   2.3145   2.3456

          k =-0.1667 0.2887 0.0000 ( 59267 PWs)   bands (ev):

   -68.6857 -68.6762 -40.3724 -40.2767 -40.1007 -40.0912 -40.0545 -40.0450
   -21.2436 -20.6568 -20.6533 -20.1010 -20.0936 -19.5836 -19.5806 -19.0962
   -18.6931 -18.6885 -18.4543 -18.4473 -18.1909 -18.0820 -18.0757 -17.8463
   -12.4822 -12.2049 -12.1994 -11.8191 -11.8163 -11.6571 -11.1894 -11.1876
   -10.3898 -10.3658 -10.1153 -10.1131  -9.5870  -9.5865  -8.8248  -8.8206
    -8.8167  -8.7641  -8.7606  -8.5948  -8.1955  -8.0304  -8.0048  -7.8275
    -7.8253  -7.4361  -7.4345  -7.2638  -7.2458  -7.2062  -7.2049  -6.9596
    -6.9530  -6.5476  -6.5284  -6.1518  -6.1511  -5.8564  -5.4163  -5.2745
    -5.2624  -5.1981  -4.8982  -4.8887  -4.4911  -4.3426  -4.3314  -3.9665
    -1.4500   0.3858   0.7992   0.9986   1.1278   1.1905   1.2705   1.3506
     1.4230   1.4915   1.5538   1.6035   1.6348   1.7435   1.9043   1.9742
     2.0422   2.0952   2.1452   2.1847   2.2935   2.3404

          k = 0.3333 0.0000 0.0000 ( 59267 PWs)   bands (ev):

   -68.6857 -68.6762 -40.3724 -40.2768 -40.1007 -40.0911 -40.0545 -40.0450
   -21.2433 -20.6806 -20.6294 -20.1022 -20.0910 -19.6081 -19.5578 -19.0980
   -18.7082 -18.6690 -18.4576 -18.4456 -18.1869 -18.1028 -18.0608 -17.8456
   -12.4819 -12.2067 -12.1976 -11.8275 -11.8101 -11.6551 -11.2070 -11.1706
   -10.3891 -10.3655 -10.1274 -10.1014  -9.5932  -9.5792  -8.8318  -8.8202
    -8.8079  -8.7851  -8.7409  -8.5956  -8.1971  -8.0734  -7.9616  -7.8266
    -7.8243  -7.4415  -7.4286  -7.2728  -7.2329  -7.2154  -7.1956  -6.9620
    -6.9519  -6.5916  -6.4895  -6.1544  -6.1477  -5.8610  -5.4161  -5.2909
    -5.2385  -5.1985  -4.9048  -4.8840  -4.4846  -4.3670  -4.3161  -3.9656
    -1.4352   0.2168   0.8452   0.9999   1.1015   1.1651   1.2914   1.4385
     1.4767   1.4889   1.5530   1.7104   1.7694   1.8451   1.9008   1.9364
     2.0126   2.0849   2.1294   2.1891   2.3000   2.3253

          k =-0.1667-0.4811 0.0000 ( 59291 PWs)   bands (ev):

   -68.6857 -68.6762 -40.3724 -40.2767 -40.1006 -40.0912 -40.0545 -40.0450
   -21.1130 -20.9094 -20.7197 -20.1576 -19.8012 -19.4634 -19.3138 -19.1713
   -19.0112 -18.7756 -18.6370 -18.5417 -18.1442 -18.0876 -17.9187 -17.7205
   -12.3463 -12.1114 -12.0430 -11.9047 -11.6790 -11.6570 -11.5509 -10.9401
   -10.8880 -10.6214 -10.5213  -9.8579  -9.6915  -9.3340  -9.1091  -8.6458
    -8.6209  -8.5508  -8.3874  -8.3561  -8.1597  -8.1065  -8.0611  -8.0485
    -7.6866  -7.6216  -7.4922  -7.4727  -7.3394  -7.1686  -7.0660  -6.8456
    -6.6196  -6.3745  -6.1626  -6.1560  -5.9578  -5.9267  -5.7817  -5.7308
    -5.4496  -5.3833  -5.1881  -5.0333  -4.4251  -4.3420  -4.0761  -3.7546
    -1.4408   0.3735   0.7948   0.9610   1.0490   1.1366   1.2116   1.2837
     1.3690   1.4183   1.5710   1.7318   1.7977   1.8785   1.9063   2.0730
     2.1149   2.1388   2.1644   2.2228   2.3082   2.3383

          k = 0.5000-0.0962 0.0000 ( 59291 PWs)   bands (ev):

   -68.6857 -68.6762 -40.3724 -40.2768 -40.1007 -40.0912 -40.0545 -40.0450
   -21.1105 -20.9161 -20.7154 -20.1559 -19.8013 -19.4652 -19.3188 -19.1670
   -19.0120 -18.7765 -18.6279 -18.5471 -18.1333 -18.1022 -17.9163 -17.7202
   -12.3453 -12.1119 -12.0411 -11.9085 -11.6903 -11.6433 -11.5530 -10.9404
   -10.8860 -10.6198 -10.5236  -9.8559  -9.6921  -9.3348  -9.1086  -8.6384
    -8.6213  -8.5490  -8.3917  -8.3775  -8.1579  -8.0925  -8.0731  -8.0377
    -7.6830  -7.6221  -7.4914  -7.4738  -7.3348  -7.1699  -7.0667  -6.8451
    -6.6200  -6.3803  -6.1747  -6.1555  -5.9470  -5.9262  -5.7810  -5.7328
    -5.4506  -5.3841  -5.1712  -5.0435  -4.4074  -4.3639  -4.0737  -3.7542
    -1.4175   0.1382   0.8000   1.0220   1.0618   1.1383   1.2062   1.2903
     1.4196   1.5934   1.6876   1.8001   1.8602   1.9145   1.9576   1.9937
     2.0307   2.1102   2.2009   2.2369   2.3021   2.3519

          k =-0.3333-0.3849 0.0000 ( 59291 PWs)   bands (ev):

   -68.6857 -68.6762 -40.3724 -40.2767 -40.1006 -40.0912 -40.0545 -40.0450
   -21.1114 -20.9138 -20.7170 -20.1557 -19.8031 -19.4634 -19.3144 -19.1702
   -19.0146 -18.7749 -18.6291 -18.5464 -18.1355 -18.0995 -17.9164 -17.7203
   -12.3459 -12.1100 -12.0433 -11.9074 -11.6800 -11.6550 -11.5520 -10.9403
   -10.8857 -10.6192 -10.5243  -9.8565  -9.6922  -9.3344  -9.1094  -8.6406
    -8.6203  -8.5507  -8.3887  -8.3699  -8.1593  -8.0979  -8.0610  -8.0508
    -7.6833  -7.6207  -7.4975  -7.4682  -7.3339  -7.1699  -7.0672  -6.8508
    -6.6182  -6.3751  -6.1634  -6.1571  -5.9555  -5.9252  -5.7812  -5.7393
    -5.4505  -5.3803  -5.1721  -5.0436  -4.4096  -4.3616  -4.0734  -3.7544
    -1.4254   0.2041   0.7869   1.0129   1.0593   1.1509   1.2143   1.2989
     1.3994   1.5115   1.6832   1.7757   1.8545   1.9048   1.9441   2.0080
     2.0611   2.0842   2.1446   2.2192   2.3156   2.3412

          k = 0.5000 0.0962 0.0000 ( 59291 PWs)   bands (ev):

   -68.6857 -68.6762 -40.3724 -40.2768 -40.1007 -40.0912 -40.0545 -40.0450
   -21.1105 -20.9161 -20.7154 -20.1559 -19.8013 -19.4652 -19.3188 -19.1670
   -19.0120 -18.7765 -18.6279 -18.5471 -18.1333 -18.1022 -17.9163 -17.7202
   -12.3453 -12.1119 -12.0411 -11.9085 -11.6903 -11.6433 -11.5530 -10.9403
   -10.8860 -10.6198 -10.5236  -9.8559  -9.6921  -9.3348  -9.1085  -8.6384
    -8.6213  -8.5490  -8.3917  -8.3775  -8.1579  -8.0925  -8.0731  -8.0376
    -7.6830  -7.6220  -7.4914  -7.4739  -7.3348  -7.1699  -7.0667  -6.8451
    -6.6199  -6.3803  -6.1747  -6.1554  -5.9470  -5.9261  -5.7811  -5.7328
    -5.4506  -5.3841  -5.1712  -5.0435  -4.4074  -4.3639  -4.0737  -3.7542
    -1.4175   0.1382   0.8000   1.0220   1.0618   1.1383   1.2062   1.2903
     1.4196   1.5934   1.6876   1.8001   1.8602   1.9145   1.9575   1.9938
     2.0307   2.1103   2.2009   2.2374   2.3018   2.3520

          k =-0.3333 0.3849 0.0000 ( 59291 PWs)   bands (ev):

   -68.6857 -68.6762 -40.3724 -40.2767 -40.1006 -40.0912 -40.0545 -40.0450
   -21.1114 -20.9138 -20.7170 -20.1557 -19.8031 -19.4634 -19.3144 -19.1702
   -19.0146 -18.7750 -18.6291 -18.5464 -18.1355 -18.0995 -17.9164 -17.7203
   -12.3459 -12.1100 -12.0433 -11.9074 -11.6800 -11.6550 -11.5520 -10.9403
   -10.8857 -10.6192 -10.5244  -9.8565  -9.6921  -9.3343  -9.1094  -8.6406
    -8.6203  -8.5507  -8.3888  -8.3699  -8.1594  -8.0979  -8.0610  -8.0508
    -7.6832  -7.6207  -7.4975  -7.4682  -7.3339  -7.1699  -7.0673  -6.8508
    -6.6182  -6.3751  -6.1634  -6.1572  -5.9555  -5.9253  -5.7811  -5.7393
    -5.4504  -5.3803  -5.1721  -5.0436  -4.4096  -4.3616  -4.0733  -3.7544
    -1.4254   0.2041   0.7869   1.0129   1.0593   1.1509   1.2143   1.2990
     1.3994   1.5115   1.6832   1.7757   1.8545   1.9047   1.9440   2.0080
     2.0610   2.0841   2.1447   2.2191   2.3162   2.3406

          k =-0.1667-0.0962 0.0000 ( 59226 PWs)   bands (ev):

   -68.6857 -68.6762 -40.3724 -40.2767 -40.1007 -40.0911 -40.0545 -40.0450
   -21.3101 -20.5320 -20.3439 -20.3348 -19.9861 -19.9764 -19.8032 -18.7269
   -18.7174 -18.3717 -18.3645 -18.3516 -18.2659 -18.2581 -18.0755 -18.0676
   -12.5059 -12.5001 -12.4063 -11.5802 -11.5740 -11.4250 -11.4183 -10.9245
   -10.9216  -9.9278  -9.9240  -9.6735  -9.3730  -9.3705  -9.2280  -9.2258
    -9.0405  -9.0385  -8.9059  -8.3218  -8.3187  -7.8996  -7.8974  -7.8601
    -7.8418  -7.7688  -7.5952  -7.5705  -7.1135  -7.0793  -6.9574  -6.8866
    -6.8834  -6.8413  -6.5300  -6.5259  -6.2558  -5.3308  -5.3029  -5.1411
    -5.0634  -4.7914  -4.7845  -4.7375  -4.6021  -4.5949  -4.3405  -4.3206
    -1.4593   0.4000   0.8049   0.9951   1.0905   1.1548   1.2123   1.3223
     1.4699   1.5365   1.6043   1.6921   1.7806   1.8613   1.8919   1.9373
     1.9808   2.0563   2.1275   2.1395   2.2491   2.3109

          k =-0.0000-0.1925 0.0000 ( 59226 PWs)   bands (ev):

   -68.6856 -68.6762 -40.3724 -40.2767 -40.1007 -40.0912 -40.0545 -40.0450
   -21.3102 -20.5276 -20.3497 -20.3368 -19.9837 -19.9722 -19.8063 -18.7264
   -18.7147 -18.3877 -18.3682 -18.3492 -18.2533 -18.2523 -18.0792 -18.0682
   -12.5077 -12.4986 -12.4061 -11.5821 -11.5736 -11.4246 -11.4159 -10.9258
   -10.9219  -9.9271  -9.9246  -9.6738  -9.3733  -9.3691  -9.2279  -9.2265
    -9.0404  -9.0389  -8.9063  -8.3215  -8.3182  -7.8988  -7.8971  -7.8506
    -7.8379  -7.7703  -7.6098  -7.5800  -7.0977  -7.0760  -6.9561  -6.8882
    -6.8832  -6.8498  -6.5304  -6.5248  -6.2563  -5.3250  -5.3027  -5.1413
    -5.0631  -4.8118  -4.7900  -4.7385  -4.5881  -4.5816  -4.3427  -4.3246
    -1.4663   0.5335   0.7675   0.9754   1.1034   1.1536   1.2025   1.2987
     1.4483   1.4821   1.5249   1.6231   1.7297   1.8445   1.9313   1.9417
     2.0602   2.0737   2.1608   2.1619   2.1942   2.3186

          k = 0.5000-0.8660 0.0000 ( 59292 PWs)   bands (ev):

   -68.6857 -68.6762 -40.3724 -40.2768 -40.1007 -40.0912 -40.0545 -40.0450
   -21.0461 -21.0438 -20.4682 -20.4594 -19.4246 -19.4155 -19.4111 -19.4053
   -18.9889 -18.9862 -18.3202 -18.3179 -18.3152 -18.3092 -17.7918 -17.7838
   -12.0675 -12.0645 -12.0622 -12.0590 -11.8779 -11.8703 -11.3270 -11.3257
   -10.2339 -10.2288 -10.1336 -10.1307 -10.1275 -10.1237  -8.5634  -8.5450
    -8.5444  -8.5434  -8.5419  -8.5321  -7.8630  -7.8613  -7.8570  -7.8553
    -7.8221  -7.8166  -7.7667  -7.7412  -7.4885  -7.4847  -6.6105  -6.6045
    -6.3334  -6.3129  -6.2957  -6.2839  -6.1879  -6.1852  -5.6946  -5.6878
    -5.5437  -5.5400  -4.7081  -4.6985  -4.6884  -4.6857  -3.8750  -3.8555
    -1.4174   0.1365   0.7993   1.0500   1.0695   1.1430   1.2860   1.4222
     1.5170   1.5374   1.5900   1.6986   1.7609   1.8742   1.9229   1.9527
     1.9817   2.0476   2.1605   2.2209   2.3138   2.3435

          k =-1.0000 0.0000 0.0000 ( 59292 PWs)   bands (ev):

   -68.6857 -68.6762 -40.3724 -40.2768 -40.1007 -40.0912 -40.0545 -40.0449
   -21.0694 -21.0180 -20.4722 -20.4595 -19.4207 -19.4167 -19.4165 -19.3975
   -19.0075 -18.9688 -18.3637 -18.3293 -18.2905 -18.2797 -17.7939 -17.7831
   -12.0990 -12.0783 -12.0382 -12.0340 -11.8798 -11.8691 -11.3473 -11.3075
   -10.2395 -10.2366 -10.1298 -10.1291 -10.1224 -10.1221  -8.6021  -8.5708
    -8.5552  -8.5268  -8.5165  -8.4875  -7.8722  -7.8664  -7.8580  -7.8579
    -7.8120  -7.8113  -7.7725  -7.7467  -7.5104  -7.4647  -6.6102  -6.6025
    -6.3318  -6.3118  -6.2971  -6.2718  -6.2049  -6.1707  -5.7193  -5.6673
    -5.5627  -5.5211  -4.7644  -4.7307  -4.6464  -4.6419  -3.8743  -3.8576
    -1.4482   0.4934   0.8209   0.9397   1.0442   1.1395   1.2130   1.2724
     1.3550   1.4942   1.5849   1.6420   1.6723   1.7977   1.8667   1.8903
     2.1314   2.1402   2.1606   2.1866   2.3276   2.3313

     the Fermi energy is    -1.1746 ev

!    total energy              =   -1133.82833360 Ry

     total all-electron energy =     -6753.504037 Ry
     estimated scf accuracy    <       0.00000003 Ry
     smearing contrib. (-TS)   =      -0.00000000 Ry
     internal energy E=F+TS    =   -1133.82833360 Ry

     The total energy is F=E-TS. E is the sum of the following terms:
     one-electron contribution =   -3952.98560806 Ry
     hartree contribution      =    2004.68258133 Ry
     xc contribution           =    -186.02002129 Ry
     ewald contribution        =    1359.87189898 Ry
     DFT-D3 Dispersion         =      -0.13425149 Ry
     one-center paw contrib.   =    -359.24293308 Ry

     total magnetization       =    10.00 Bohr mag/cell
     absolute magnetization    =    10.01 Bohr mag/cell

     convergence has been achieved in  14 iterations

     Writing output data file ./mytmp/Crdimer0.1415-0.0.save/
 
     init_run     :     18.72s CPU     19.77s WALL (       1 calls)
     electrons    :    480.49s CPU    510.90s WALL (       1 calls)

     Called by init_run:
     wfcinit      :     13.95s CPU     14.62s WALL (       1 calls)
     potinit      :      1.47s CPU      1.55s WALL (       1 calls)
     hinit0       :      1.54s CPU      1.62s WALL (       1 calls)

     Called by electrons:
     c_bands      :    383.10s CPU    405.21s WALL (      14 calls)
     sum_band     :     75.31s CPU     80.35s WALL (      14 calls)
     v_of_rho     :      4.59s CPU      4.92s WALL (      15 calls)
     newd         :      9.47s CPU     12.40s WALL (      15 calls)
     PAW_pot      :      7.38s CPU      7.48s WALL (      15 calls)
     mix_rho      :      0.98s CPU      1.00s WALL (      14 calls)

     Called by c_bands:
     init_us_2    :      5.04s CPU      5.06s WALL (     870 calls)
     cegterg      :    370.72s CPU    392.78s WALL (     420 calls)

     Called by *egterg:
     cdiaghg      :     23.94s CPU     37.51s WALL (    2643 calls)
     h_psi        :    240.85s CPU    249.09s WALL (    2673 calls)
     s_psi        :     26.72s CPU     26.76s WALL (    2673 calls)
     g_psi        :      0.70s CPU      0.72s WALL (    2223 calls)

     Called by h_psi:
     h_psi:calbec :     27.64s CPU     28.19s WALL (    2673 calls)
     vloc_psi     :    183.84s CPU    191.44s WALL (    2673 calls)
     add_vuspsi   :     27.26s CPU     27.35s WALL (    2673 calls)

     General routines
     calbec       :     36.97s CPU     37.70s WALL (    3093 calls)
     fft          :      4.37s CPU      5.29s WALL (     369 calls)
     ffts         :      0.11s CPU      0.12s WALL (      58 calls)
     fftw         :    189.95s CPU    197.72s WALL (  248098 calls)
     interpolate  :      0.40s CPU      0.44s WALL (      30 calls)
 
     Parallel routines
     fft_scatt_xy :     30.33s CPU     31.39s WALL (  248525 calls)
     fft_scatt_yz :     74.89s CPU     79.36s WALL (  248525 calls)
 
     PWSCF        :   8m21.32s CPU   8m54.77s WALL

 
   This run was terminated on:  12:54:25   2Apr2021            

=------------------------------------------------------------------------------=
   JOB DONE.
=------------------------------------------------------------------------------=
