
     Program PWSCF v.6.7MaX starts on  2Apr2021 at 11:42: 6 

     This program is part of the open-source Quantum ESPRESSO suite
     for quantum simulation of materials; please cite
         "P. Giannozzi et al., J. Phys.:Condens. Matter 21 395502 (2009);
         "P. Giannozzi et al., J. Phys.:Condens. Matter 29 465901 (2017);
          URL http://www.quantum-espresso.org", 
     in publications or presentations arising from this work. More details at
     http://www.quantum-espresso.org/quote

     Parallel version (MPI), running on    48 processors

     MPI processes distributed on     1 nodes
     R & G space division:  proc/nbgrp/npool/nimage =      48
     Reading input from Crdimer0.1405-0.5.scf.in

     Current dimensions of program PWSCF are:
     Max number of different atomic species (ntypx) = 10
     Max number of k-points (npk) =  40000
     Max angular momentum in pseudopotentials (lmaxx) =  3
     file N.pbe-n-kjpaw_psl.1.0.0.UPF: wavefunction(s)  2S renormalized
     file Cr.pbe-spn-kjpaw_psl.1.0.0.UPF: wavefunction(s)  3S 3P 3D renormalized
     file Cr.pbe-spn-kjpaw_psl.1.0.0.UPF: wavefunction(s)  3S 3P 3D renormalized

     --------------------------------------------
     Parameters for DFT-D3 Dispersion Correction:
     --------------------------------------------
       Reference C6 values for interpolation: 

         atom   Coordination number   C6
         B          0.000           214.36
         B          0.971           150.74
         B          1.944           106.23
         B          2.913            62.89
         B          4.586            56.06
         N          0.000            50.54
         N          0.994            44.25
         N          2.014            39.35
         N          2.990            31.16
         Cr1        0.000          1381.48
         Cr1        1.827           571.38
         Cr1       10.619           306.69
         Cr2        0.000          1381.48
         Cr2        1.827           571.38
         Cr2       10.619           306.69

       Values used:

         atom   Coordination number  R0_AB[au]  C6      C8
         B          3.336            3.039     62.89   2505.99
         B          3.340            3.039     62.89   2505.88
         B          3.335            3.039     62.89   2506.01
         B          3.335            3.039     62.89   2506.01
         B          3.340            3.039     62.89   2505.88
         B          3.336            3.039     62.89   2505.99
         N          3.134            2.478     31.22    688.69
         N          3.158            2.478     31.21    688.49
         N          3.134            2.478     31.22    688.69
         N          3.134            2.478     31.22    688.70
         N          3.142            2.478     31.21    688.62
         N          3.136            2.478     31.22    688.68
         N          3.140            2.478     31.22    688.64
         N          3.135            2.478     31.22    688.69
         N          3.134            2.478     31.22    688.70
         B          3.359            3.039     62.88   2505.39
         B          3.340            3.039     62.89   2505.88
         B          3.336            3.039     62.89   2505.99
         B          3.340            3.039     62.89   2505.88
         B          3.336            3.039     62.89   2505.99
         B          3.359            3.039     62.88   2505.39
         N          3.140            2.478     31.22    688.64
         B          3.336            3.039     62.89   2505.99
         B          3.366            3.039     62.87   2505.19
         B          3.335            3.039     62.89   2506.01
         N          3.136            2.478     31.22    688.68
         N          3.158            2.478     31.21    688.49
         N          3.135            2.478     31.22    688.69
         N          3.135            2.478     31.22    688.69
         N          3.134            2.478     31.22    688.69
         N          3.134            2.478     31.22    688.70
         B          3.335            3.039     62.89   2506.01
         Cr1        0.758            3.252   1285.87 118671.09
         Cr2        0.758            3.252   1285.87 118671.09

         Molecular C6 ( Ry / a.u.^6 ) =     78059.77


     Subspace diagonalization in iterative solution of the eigenvalue problem:
     one sub-group per band group will be used
     scalapack distributed-memory algorithm (size of sub-group:  6*  6 procs)

 
     Parallelization info
     --------------------
     sticks:   dense  smooth     PW     G-vecs:    dense   smooth      PW
     Min         235      98     26                36277     9874    1408
     Max         236      99     27                36282     9883    1425
     Sum       11311    4741   1285              1741401   474235   68095
 


     bravais-lattice index     =            4
     lattice parameter (alat)  =      18.9275  a.u.
     unit-cell volume          =   10553.3021 (a.u.)^3
     number of atoms/cell      =           34
     number of atomic types    =            4
     number of electrons       =       156.00
     number of Kohn-Sham states=           94
     kinetic-energy cutoff     =      48.0000  Ry
     charge density cutoff     =     457.0000  Ry
     scf convergence threshold =      1.0E-07
     mixing beta               =       0.5000
     number of iterations used =            8  plain     mixing
     Exchange-correlation= SLA  PW   PBX  PBC
                           (   1   4   3   4   0   0   0)

     celldm(1)=  18.927497  celldm(2)=   0.000000  celldm(3)=   1.797125
     celldm(4)=   0.000000  celldm(5)=   0.000000  celldm(6)=   0.000000

     crystal axes: (cart. coord. in units of alat)
               a(1) = (   1.000000   0.000000   0.000000 )  
               a(2) = (  -0.500000   0.866025   0.000000 )  
               a(3) = (   0.000000   0.000000   1.797125 )  

     reciprocal axes: (cart. coord. in units 2 pi/alat)
               b(1) = (  1.000000  0.577350  0.000000 )  
               b(2) = (  0.000000  1.154701  0.000000 )  
               b(3) = (  0.000000  0.000000  0.556444 )  


     PseudoPot. # 1 for B  read from file:
     /home/sf05/q-e-qe-6.7MaX-Release/pseudo/B.pbe-n-kjpaw_psl.1.0.0.UPF
     MD5 check sum: d9c678ba5d3b2fd7b74e61139c9288d8
     Pseudo is Projector augmented-wave + core cor, Zval =  3.0
     Generated using "atomic" code by A. Dal Corso  v.5.1.2
     Shape of augmentation charge: PSQ
     Using radial grid of 1059 points,  4 beta functions with: 
                l(1) =   0
                l(2) =   0
                l(3) =   1
                l(4) =   1
     Q(r) pseudized with 0 coefficients 


     PseudoPot. # 2 for N  read from file:
     /home/sf05/q-e-qe-6.7MaX-Release/pseudo/N.pbe-n-kjpaw_psl.1.0.0.UPF
     MD5 check sum: e0e4e94a9c4025c5b51bd7d8793849bd
     Pseudo is Projector augmented-wave + core cor, Zval =  5.0
     Generated using "atomic" code by A. Dal Corso  v.5.1.2
     Shape of augmentation charge: PSQ
     Using radial grid of 1085 points,  4 beta functions with: 
                l(1) =   0
                l(2) =   0
                l(3) =   1
                l(4) =   1
     Q(r) pseudized with 0 coefficients 


     PseudoPot. # 3 for Cr read from file:
     /home/sf05/q-e-qe-6.7MaX-Release/pseudo/Cr.pbe-spn-kjpaw_psl.1.0.0.UPF
     MD5 check sum: 198f1a2427a48552563eee314eba32ba
     Pseudo is Projector augmented-wave + core cor, Zval = 14.0
     Generated using &quot;atomic&quot; code by A. Dal Corso  v.6.3
     Shape of augmentation charge: PSQ
     Using radial grid of 1183 points,  6 beta functions with: 
                l(1) =   0
                l(2) =   0
                l(3) =   1
                l(4) =   1
                l(5) =   2
                l(6) =   2
     Q(r) pseudized with 0 coefficients 


     PseudoPot. # 4 for Cr read from file:
     /home/sf05/q-e-qe-6.7MaX-Release/pseudo/Cr.pbe-spn-kjpaw_psl.1.0.0.UPF
     MD5 check sum: 198f1a2427a48552563eee314eba32ba
     Pseudo is Projector augmented-wave + core cor, Zval = 14.0
     Generated using &quot;atomic&quot; code by A. Dal Corso  v.6.3
     Shape of augmentation charge: PSQ
     Using radial grid of 1183 points,  6 beta functions with: 
                l(1) =   0
                l(2) =   0
                l(3) =   1
                l(4) =   1
                l(5) =   2
                l(6) =   2
     Q(r) pseudized with 0 coefficients 


     atomic species   valence    mass     pseudopotential
        B              3.00    10.81100     B ( 1.00)
        N              5.00    14.00674     N ( 1.00)
        Cr1           14.00    51.99610     Cr( 1.00)
        Cr2           14.00    51.99610     Cr( 1.00)

     Starting magnetic structure 
     atomic species   magnetization
        B            0.000
        N            0.000
        Cr1          1.000
        Cr2          1.000

     No symmetry found



   Cartesian axes

     site n.     atom                  positions (alat units)
         1           B   tau(   1) = (  -0.1250000   0.2165064   0.8985623  )
         2           B   tau(   2) = (   0.3750000   0.6495191   0.8985623  )
         3           B   tau(   3) = (   0.2500000   0.0000000   0.8985623  )
         4           B   tau(   4) = (   0.7500000   0.0000000   0.8985623  )
         5           B   tau(   5) = (   0.1250000   0.2165064   0.8985623  )
         6           B   tau(   6) = (  -0.3750000   0.6495191   0.8985623  )
         7           N   tau(   7) = (   0.7500005   0.2886748   0.8985623  )
         8           N   tau(   8) = (   0.3750005   0.5051812   0.8985623  )
         9           N   tau(   9) = (   0.3750005   0.0721685   0.8985623  )
        10           N   tau(  10) = (   0.6250005   0.0721685   0.8985623  )
        11           N   tau(  11) = (   0.2500005   0.2886748   0.8985623  )
        12           N   tau(  12) = (   0.6250005   0.5051812   0.8985623  )
        13           N   tau(  13) = (   0.0000005   0.2886748   0.8985623  )
        14           N   tau(  14) = (   0.2500005   0.7216875   0.8985623  )
        15           N   tau(  15) = (  -0.2499995   0.7216875   0.8985623  )
        16           B   tau(  16) = (   0.0000000   0.4330127   0.8985623  )
        17           B   tau(  17) = (   0.1250000   0.6495191   0.8985623  )
        18           B   tau(  18) = (  -0.1250000   0.6495191   0.8985623  )
        19           B   tau(  19) = (   0.3750000   0.2165064   0.8985623  )
        20           B   tau(  20) = (   0.6250000   0.2165064   0.8985623  )
        21           B   tau(  21) = (   0.5000000   0.4330127   0.8985623  )
        22           N   tau(  22) = (   0.5000005   0.2886748   0.8985623  )
        23           B   tau(  23) = (  -0.2500000   0.4330127   0.8985623  )
        24           B   tau(  24) = (   0.2500000   0.4330127   0.8985623  )
        25           B   tau(  25) = (   0.5000000   0.0000000   0.8985623  )
        26           N   tau(  26) = (  -0.1249995   0.5051812   0.8985623  )
        27           N   tau(  27) = (   0.1250005   0.5051812   0.8985623  )
        28           N   tau(  28) = (   0.0000005   0.7216875   0.8985623  )
        29           N   tau(  29) = (   0.5000005   0.7216875   0.8985623  )
        30           N   tau(  30) = (   0.1250005   0.0721685   0.8985623  )
        31           N   tau(  31) = (   0.8750005   0.0721685   0.8985623  )
        32           B   tau(  32) = (   0.0000000   0.0000000   0.8985623  )
        33           Cr1 tau(  33) = (   0.3905000   0.4330127   1.2040735  )
        34           Cr2 tau(  34) = (   0.1095000   0.4330127   1.2040735  )

     number of k points=    15  Gaussian smearing, width (Ry)=  0.0000
                       cart. coord. in units 2pi/alat
        k(    1) = (   0.1666667   0.2886751   0.0000000), wk =   0.0740741
        k(    2) = (   0.1666667  -0.4811252   0.0000000), wk =   0.0740741
        k(    3) = (   0.1666667  -0.0962250   0.0000000), wk =   0.0740741
        k(    4) = (  -0.5000000  -0.8660254   0.0000000), wk =   0.0370370
        k(    5) = (  -0.1666667   0.2886751   0.0000000), wk =   0.0740741
        k(    6) = (   0.3333333   0.0000000   0.0000000), wk =   0.0740741
        k(    7) = (  -0.1666667  -0.4811252   0.0000000), wk =   0.0740741
        k(    8) = (   0.5000000  -0.0962250   0.0000000), wk =   0.0740741
        k(    9) = (  -0.3333333  -0.3849002   0.0000000), wk =   0.0740741
        k(   10) = (   0.5000000   0.0962250   0.0000000), wk =   0.0740741
        k(   11) = (  -0.3333333   0.3849002   0.0000000), wk =   0.0740741
        k(   12) = (  -0.1666667  -0.0962250   0.0000000), wk =   0.0740741
        k(   13) = (  -0.0000000  -0.1924501   0.0000000), wk =   0.0740741
        k(   14) = (   0.5000000  -0.8660254   0.0000000), wk =   0.0370370
        k(   15) = (  -1.0000000   0.0000000   0.0000000), wk =   0.0370370

     Dense  grid:  1741401 G-vectors     FFT dimensions: ( 135, 135, 240)

     Smooth grid:   474235 G-vectors     FFT dimensions: (  90,  90, 160)

     Estimated max dynamical RAM per process >     218.62 MB

     Estimated total dynamical RAM >      10.25 GB
     Generating pointlists ...
     new r_m :   0.0595 (alat units)  1.1269 (a.u.) for type    1
     new r_m :   0.0595 (alat units)  1.1269 (a.u.) for type    2
     new r_m :   0.1159 (alat units)  2.1939 (a.u.) for type    3
     new r_m :   0.1159 (alat units)  2.1939 (a.u.) for type    4

     Initial potential from superposition of free atoms

     starting charge  155.99382, renormalised to  156.00000

     negative rho (up, down):  6.709E-03 4.655E-04
     Starting wfcs are  148 randomized atomic wfcs
     Checking if some PAW data can be deallocated... 

     total cpu time spent up to now is       20.2 secs

     Self-consistent Calculation

     iteration #  1     ecut=    48.00 Ry     beta= 0.50
     Davidson diagonalization with overlap
     ethr =  1.00E-02,  avg # of iterations =  2.8

     negative rho (up, down):  4.897E-03 2.910E-03

     total cpu time spent up to now is       60.2 secs

     total energy              =   -1130.73568546 Ry
     estimated scf accuracy    <      11.36465531 Ry

     total magnetization       =    12.00 Bohr mag/cell
     absolute magnetization    =    12.12 Bohr mag/cell

     iteration #  2     ecut=    48.00 Ry     beta= 0.50
     Davidson diagonalization with overlap
     ethr =  7.29E-03,  avg # of iterations =  2.8

     negative rho (up, down):  8.768E-03 7.935E-03

     total cpu time spent up to now is       97.3 secs

     total energy              =   -1132.93268958 Ry
     estimated scf accuracy    <       3.73969618 Ry

     total magnetization       =    10.00 Bohr mag/cell
     absolute magnetization    =    10.07 Bohr mag/cell

     iteration #  3     ecut=    48.00 Ry     beta= 0.50
     Davidson diagonalization with overlap
     ethr =  2.40E-03,  avg # of iterations =  7.0

     negative rho (up, down):  4.158E-03 3.925E-03

     total cpu time spent up to now is      135.3 secs

     total energy              =   -1133.56451949 Ry
     estimated scf accuracy    <       0.86365314 Ry

     total magnetization       =    10.89 Bohr mag/cell
     absolute magnetization    =    10.95 Bohr mag/cell

     iteration #  4     ecut=    48.00 Ry     beta= 0.50
     Davidson diagonalization with overlap
     ethr =  5.54E-04,  avg # of iterations =  6.4

     negative rho (up, down):  7.267E-03 7.547E-03

     total cpu time spent up to now is      172.3 secs

     total energy              =   -1133.76886995 Ry
     estimated scf accuracy    <       0.51076772 Ry

     total magnetization       =    10.00 Bohr mag/cell
     absolute magnetization    =    10.01 Bohr mag/cell

     iteration #  5     ecut=    48.00 Ry     beta= 0.50
     Davidson diagonalization with overlap
     ethr =  3.27E-04,  avg # of iterations =  6.0

     negative rho (up, down):  4.651E-03 4.349E-03

     total cpu time spent up to now is      210.5 secs

     total energy              =   -1133.80940346 Ry
     estimated scf accuracy    <       0.11678930 Ry

     total magnetization       =    10.00 Bohr mag/cell
     absolute magnetization    =    10.01 Bohr mag/cell

     iteration #  6     ecut=    48.00 Ry     beta= 0.50
     Davidson diagonalization with overlap
     ethr =  7.49E-05,  avg # of iterations =  7.2

     negative rho (up, down):  3.732E-03 3.928E-03

     total cpu time spent up to now is      249.2 secs

     total energy              =   -1133.82319745 Ry
     estimated scf accuracy    <       0.02140539 Ry

     total magnetization       =    10.00 Bohr mag/cell
     absolute magnetization    =    10.02 Bohr mag/cell

     iteration #  7     ecut=    48.00 Ry     beta= 0.50
     Davidson diagonalization with overlap
     ethr =  1.37E-05,  avg # of iterations =  9.9

     negative rho (up, down):  3.299E-03 3.809E-03

     total cpu time spent up to now is      289.1 secs

     total energy              =   -1133.82734963 Ry
     estimated scf accuracy    <       0.00444623 Ry

     total magnetization       =    10.00 Bohr mag/cell
     absolute magnetization    =    10.01 Bohr mag/cell

     iteration #  8     ecut=    48.00 Ry     beta= 0.50
     Davidson diagonalization with overlap
     ethr =  2.85E-06,  avg # of iterations =  6.0

     negative rho (up, down):  3.201E-03 3.789E-03

     total cpu time spent up to now is      325.7 secs

     total energy              =   -1133.82810232 Ry
     estimated scf accuracy    <       0.00069532 Ry

     total magnetization       =    10.00 Bohr mag/cell
     absolute magnetization    =    10.01 Bohr mag/cell

     iteration #  9     ecut=    48.00 Ry     beta= 0.50
     Davidson diagonalization with overlap
     ethr =  4.46E-07,  avg # of iterations =  4.4

     negative rho (up, down):  3.145E-03 3.781E-03

     total cpu time spent up to now is      357.8 secs

     total energy              =   -1133.82825317 Ry
     estimated scf accuracy    <       0.00008563 Ry

     total magnetization       =    10.00 Bohr mag/cell
     absolute magnetization    =    10.01 Bohr mag/cell

     iteration # 10     ecut=    48.00 Ry     beta= 0.50
     Davidson diagonalization with overlap
     ethr =  5.49E-08,  avg # of iterations =  4.0

     negative rho (up, down):  3.130E-03 3.791E-03

     total cpu time spent up to now is      396.7 secs

     total energy              =   -1133.82830846 Ry
     estimated scf accuracy    <       0.00001697 Ry

     total magnetization       =    10.00 Bohr mag/cell
     absolute magnetization    =    10.01 Bohr mag/cell

     iteration # 11     ecut=    48.00 Ry     beta= 0.50
     Davidson diagonalization with overlap
     ethr =  1.09E-08,  avg # of iterations =  4.2

     negative rho (up, down):  3.122E-03 3.798E-03

     total cpu time spent up to now is      432.4 secs

     total energy              =   -1133.82832324 Ry
     estimated scf accuracy    <       0.00000400 Ry

     total magnetization       =    10.00 Bohr mag/cell
     absolute magnetization    =    10.01 Bohr mag/cell

     iteration # 12     ecut=    48.00 Ry     beta= 0.50
     Davidson diagonalization with overlap
     ethr =  2.57E-09,  avg # of iterations =  4.0

     negative rho (up, down):  3.118E-03 3.807E-03

     total cpu time spent up to now is      465.9 secs

     total energy              =   -1133.82832755 Ry
     estimated scf accuracy    <       0.00000171 Ry

     total magnetization       =    10.00 Bohr mag/cell
     absolute magnetization    =    10.01 Bohr mag/cell

     iteration # 13     ecut=    48.00 Ry     beta= 0.50
     Davidson diagonalization with overlap
     ethr =  1.10E-09,  avg # of iterations =  4.6

     negative rho (up, down):  3.115E-03 3.810E-03

     total cpu time spent up to now is      498.4 secs

     total energy              =   -1133.82832931 Ry
     estimated scf accuracy    <       0.00000024 Ry

     total magnetization       =    10.00 Bohr mag/cell
     absolute magnetization    =    10.01 Bohr mag/cell

     iteration # 14     ecut=    48.00 Ry     beta= 0.50
     Davidson diagonalization with overlap
     ethr =  1.57E-10,  avg # of iterations =  4.8

     negative rho (up, down):  3.114E-03 3.811E-03
 
     Magnetic moment per site:
     atom:    1    charge:    0.8806    magn:    0.0004    constr:    0.0000
     atom:    2    charge:    0.8801    magn:    0.0008    constr:    0.0000
     atom:    3    charge:    0.8802    magn:    0.0001    constr:    0.0000
     atom:    4    charge:    0.8803    magn:    0.0001    constr:    0.0000
     atom:    5    charge:    0.8800    magn:    0.0001    constr:    0.0000
     atom:    6    charge:    0.8805    magn:    0.0001    constr:    0.0000
     atom:    7    charge:    2.8610    magn:    0.0004    constr:    0.0000
     atom:    8    charge:    2.8610    magn:    0.0065    constr:    0.0000
     atom:    9    charge:    2.8609    magn:    0.0003    constr:    0.0000
     atom:   10    charge:    2.8609    magn:    0.0002    constr:    0.0000
     atom:   11    charge:    2.8604    magn:    0.0047    constr:    0.0000
     atom:   12    charge:    2.8609    magn:    0.0013    constr:    0.0000
     atom:   13    charge:    2.8596    magn:    0.0040    constr:    0.0000
     atom:   14    charge:    2.8597    magn:    0.0009    constr:    0.0000
     atom:   15    charge:    2.8600    magn:    0.0000    constr:    0.0000
     atom:   16    charge:    0.8807    magn:   -0.0000    constr:    0.0000
     atom:   17    charge:    0.8798    magn:    0.0008    constr:    0.0000
     atom:   18    charge:    0.8802    magn:    0.0001    constr:    0.0000
     atom:   19    charge:    0.8794    magn:    0.0001    constr:    0.0000
     atom:   20    charge:    0.8800    magn:    0.0004    constr:    0.0000
     atom:   21    charge:    0.8805    magn:   -0.0000    constr:    0.0000
     atom:   22    charge:    2.8609    magn:    0.0040    constr:    0.0000
     atom:   23    charge:    0.8804    magn:    0.0001    constr:    0.0000
     atom:   24    charge:    0.8788    magn:    0.0001    constr:    0.0000
     atom:   25    charge:    0.8799    magn:    0.0001    constr:    0.0000
     atom:   26    charge:    2.8598    magn:    0.0013    constr:    0.0000
     atom:   27    charge:    2.8599    magn:    0.0065    constr:    0.0000
     atom:   28    charge:    2.8598    magn:    0.0007    constr:    0.0000
     atom:   29    charge:    2.8596    magn:    0.0006    constr:    0.0000
     atom:   30    charge:    2.8596    magn:    0.0003    constr:    0.0000
     atom:   31    charge:    2.8596    magn:    0.0002    constr:    0.0000
     atom:   32    charge:    0.8802    magn:    0.0001    constr:    0.0000
     atom:   33    charge:   12.4973    magn:    4.2208    constr:    0.0000
     atom:   34    charge:   12.4972    magn:    4.2208    constr:    0.0000

     total cpu time spent up to now is      533.1 secs

     End of self-consistent calculation

 ------ SPIN UP ------------


          k = 0.1667 0.2887 0.0000 ( 59267 PWs)   bands (ev):

   -72.8825 -72.8735 -44.4398 -44.3530 -44.2812 -44.2726 -44.2550 -44.2464
   -21.2472 -20.6606 -20.6565 -20.1049 -20.0969 -19.5869 -19.5843 -19.0999
   -18.6979 -18.6919 -18.4582 -18.4508 -18.1955 -18.0858 -18.0787 -17.8501
   -12.4844 -12.2075 -12.2014 -11.8213 -11.8183 -11.6591 -11.1919 -11.1898
   -10.3924 -10.3681 -10.1183 -10.1153  -9.5895  -9.5885  -8.8373  -8.8264
    -8.8229  -8.7661  -8.7629  -8.5970  -8.1976  -8.0541  -8.0138  -7.8299
    -7.8274  -7.4395  -7.4371  -7.2828  -7.2586  -7.2082  -7.2074  -6.9619
    -6.9551  -6.5686  -6.5360  -6.1543  -6.1534  -5.8722  -5.4191  -5.2973
    -5.2736  -5.2007  -4.9125  -4.9010  -4.5082  -4.3577  -4.3396  -3.9800
    -2.8993  -2.0560  -2.0343  -1.8442  -1.6392  -1.5834  -1.4766  -1.4634
    -1.3663  -1.3574  -1.3089  -0.7238   0.6746   0.8555   1.0510   1.2026
     1.2991   1.4831   1.5204   1.5747   1.6098   1.7976

          k = 0.1667-0.4811 0.0000 ( 59291 PWs)   bands (ev):

   -72.8825 -72.8735 -44.4399 -44.3530 -44.2812 -44.2726 -44.2550 -44.2464
   -21.1168 -20.9125 -20.7233 -20.1613 -19.8047 -19.4670 -19.3174 -19.1751
   -19.0148 -18.7791 -18.6420 -18.5447 -18.1496 -18.0897 -17.9226 -17.7244
   -12.3485 -12.1136 -12.0451 -11.9068 -11.6809 -11.6594 -11.5530 -10.9426
   -10.8905 -10.6239 -10.5236  -9.8608  -9.6937  -9.3366  -9.1114  -8.6684
    -8.6233  -8.5536  -8.3895  -8.3676  -8.1620  -8.1229  -8.0632  -8.0506
    -7.6892  -7.6238  -7.4946  -7.4748  -7.3565  -7.1713  -7.0682  -6.8609
    -6.6226  -6.3894  -6.1785  -6.1583  -5.9724  -5.9297  -5.7842  -5.7457
    -5.4520  -5.3974  -5.2098  -5.0422  -4.4456  -4.3483  -4.0894  -3.7678
    -2.8966  -2.0557  -2.0350  -1.8406  -1.6375  -1.5833  -1.4791  -1.4639
    -1.3663  -1.3571  -1.3108  -0.7282   0.5881   0.8454   1.0709   1.1156
     1.2450   1.2738   1.3982   1.8416   1.9284   2.1118

          k = 0.1667-0.0962 0.0000 ( 59226 PWs)   bands (ev):

   -72.8825 -72.8735 -44.4398 -44.3530 -44.2812 -44.2726 -44.2550 -44.2464
   -21.3137 -20.5360 -20.3474 -20.3377 -19.9906 -19.9795 -19.8063 -18.7316
   -18.7209 -18.3763 -18.3681 -18.3551 -18.2702 -18.2618 -18.0792 -18.0706
   -12.5084 -12.5020 -12.4085 -11.5826 -11.5757 -11.4276 -11.4204 -10.9270
   -10.9237  -9.9303  -9.9260  -9.6761  -9.3753  -9.3728  -9.2310  -9.2283
    -9.0427  -9.0407  -8.9240  -8.3247  -8.3214  -7.9021  -7.8998  -7.8812
    -7.8455  -7.7708  -7.6114  -7.5804  -7.1380  -7.0895  -6.9598  -6.8891
    -6.8854  -6.8513  -6.5326  -6.5280  -6.2580  -5.3541  -5.3142  -5.1438
    -5.0658  -4.8098  -4.8006  -4.7487  -4.6157  -4.6076  -4.3560  -4.3295
    -2.9024  -2.0563  -2.0338  -1.8477  -1.6417  -1.5836  -1.4743  -1.4629
    -1.3663  -1.3578  -1.3072  -0.7192   0.7817   0.8440   1.0027   1.2116
     1.2598   1.3493   1.5837   1.6030   1.7311   1.9505

          k =-0.5000-0.8660 0.0000 ( 59292 PWs)   bands (ev):

   -72.8825 -72.8735 -44.4399 -44.3530 -44.2812 -44.2726 -44.2549 -44.2464
   -21.0498 -21.0473 -20.4719 -20.4624 -19.4297 -19.4194 -19.4141 -19.4084
   -18.9924 -18.9898 -18.3259 -18.3204 -18.3164 -18.3152 -17.7960 -17.7872
   -12.0713 -12.0656 -12.0631 -12.0621 -11.8803 -11.8718 -11.3295 -11.3279
   -10.2366 -10.2307 -10.1367 -10.1333 -10.1299 -10.1257  -8.5913  -8.5501
    -8.5474  -8.5451  -8.5444  -8.5383  -7.8656  -7.8639  -7.8589  -7.8572
    -7.8256  -7.8197  -7.7838  -7.7513  -7.4900  -7.4873  -6.6136  -6.6066
    -6.3623  -6.3322  -6.3056  -6.2928  -6.1900  -6.1886  -5.7121  -5.6966
    -5.5458  -5.5425  -4.7299  -4.7212  -4.6957  -4.6910  -3.8914  -3.8651
    -2.8849  -2.0538  -2.0345  -1.8422  -1.6398  -1.5828  -1.4791  -1.4640
    -1.3716  -1.3611  -1.3138  -0.8459   0.7700   0.9993   1.1199   1.1564
     1.3694   1.5710   1.5870   1.6068   1.7369   1.7581

          k =-0.1667 0.2887 0.0000 ( 59267 PWs)   bands (ev):

   -72.8825 -72.8735 -44.4398 -44.3530 -44.2812 -44.2726 -44.2550 -44.2464
   -21.2472 -20.6606 -20.6566 -20.1049 -20.0969 -19.5869 -19.5843 -19.0999
   -18.6978 -18.6920 -18.4582 -18.4508 -18.1955 -18.0857 -18.0787 -17.8502
   -12.4844 -12.2075 -12.2015 -11.8213 -11.8183 -11.6591 -11.1918 -11.1898
   -10.3924 -10.3681 -10.1183 -10.1153  -9.5895  -9.5885  -8.8373  -8.8263
    -8.8229  -8.7661  -8.7630  -8.5970  -8.1976  -8.0541  -8.0138  -7.8299
    -7.8274  -7.4395  -7.4371  -7.2828  -7.2586  -7.2081  -7.2074  -6.9619
    -6.9551  -6.5686  -6.5360  -6.1543  -6.1534  -5.8722  -5.4192  -5.2973
    -5.2737  -5.2006  -4.9125  -4.9010  -4.5082  -4.3577  -4.3396  -3.9800
    -2.8993  -2.0560  -2.0343  -1.8442  -1.6392  -1.5834  -1.4766  -1.4634
    -1.3663  -1.3574  -1.3089  -0.7238   0.6746   0.8555   1.0510   1.2026
     1.2991   1.4831   1.5204   1.5747   1.6098   1.7976

          k = 0.3333 0.0000 0.0000 ( 59267 PWs)   bands (ev):

   -72.8825 -72.8735 -44.4398 -44.3530 -44.2812 -44.2726 -44.2550 -44.2464
   -21.2468 -20.6858 -20.6312 -20.1057 -20.0944 -19.6136 -19.5597 -19.1020
   -18.7139 -18.6707 -18.4616 -18.4493 -18.1907 -18.1088 -18.0626 -17.8493
   -12.4841 -12.2088 -12.1999 -11.8298 -11.8121 -11.6568 -11.2104 -11.1721
   -10.3915 -10.3679 -10.1309 -10.1030  -9.5958  -9.5810  -8.8453  -8.8236
    -8.8151  -8.7885  -8.7420  -8.5978  -8.1994  -8.1021  -7.9654  -7.8289
    -7.8263  -7.4451  -7.4307  -7.2939  -7.2421  -7.2183  -7.1970  -6.9645
    -6.9541  -6.6183  -6.4935  -6.1571  -6.1498  -5.8786  -5.4189  -5.3113
    -5.2490  -5.2010  -4.9211  -4.8949  -4.4995  -4.3844  -4.3256  -3.9784
    -2.8919  -2.0544  -2.0337  -1.8453  -1.6416  -1.5831  -1.4763  -1.4635
    -1.3698  -1.3602  -1.3107  -0.8058   0.8152   0.9924   1.0773   1.2464
     1.3226   1.4996   1.5175   1.5568   1.5891   1.8330

          k =-0.1667-0.4811 0.0000 ( 59291 PWs)   bands (ev):

   -72.8825 -72.8735 -44.4399 -44.3530 -44.2812 -44.2726 -44.2550 -44.2464
   -21.1168 -20.9125 -20.7233 -20.1613 -19.8047 -19.4670 -19.3174 -19.1751
   -19.0148 -18.7791 -18.6420 -18.5447 -18.1497 -18.0897 -17.9226 -17.7244
   -12.3485 -12.1136 -12.0451 -11.9067 -11.6809 -11.6594 -11.5531 -10.9426
   -10.8906 -10.6239 -10.5235  -9.8607  -9.6937  -9.3366  -9.1114  -8.6684
    -8.6232  -8.5536  -8.3894  -8.3676  -8.1620  -8.1229  -8.0632  -8.0507
    -7.6892  -7.6239  -7.4946  -7.4748  -7.3565  -7.1713  -7.0682  -6.8609
    -6.6226  -6.3895  -6.1785  -6.1584  -5.9724  -5.9297  -5.7842  -5.7457
    -5.4520  -5.3973  -5.2098  -5.0422  -4.4456  -4.3483  -4.0894  -3.7678
    -2.8966  -2.0557  -2.0350  -1.8406  -1.6375  -1.5833  -1.4791  -1.4639
    -1.3663  -1.3571  -1.3108  -0.7282   0.5881   0.8454   1.0709   1.1156
     1.2450   1.2738   1.3982   1.8416   1.9284   2.1117

          k = 0.5000-0.0962 0.0000 ( 59291 PWs)   bands (ev):

   -72.8825 -72.8735 -44.4398 -44.3530 -44.2812 -44.2726 -44.2550 -44.2464
   -21.1141 -20.9200 -20.7184 -20.1594 -19.8048 -19.4691 -19.3231 -19.1701
   -19.0158 -18.7803 -18.6314 -18.5509 -18.1371 -18.1066 -17.9197 -17.7241
   -12.3475 -12.1141 -12.0431 -11.9108 -11.6929 -11.6447 -11.5554 -10.9428
   -10.8885 -10.6222 -10.5260  -9.8584  -9.6943  -9.3377  -9.1108  -8.6581
    -8.6239  -8.5515  -8.4002  -8.3917  -8.1600  -8.1033  -8.0764  -8.0389
    -7.6851  -7.6244  -7.4937  -7.4759  -7.3502  -7.1728  -7.0691  -6.8602
    -6.6230  -6.3989  -6.1946  -6.1578  -5.9571  -5.9290  -5.7835  -5.7485
    -5.4530  -5.3981  -5.1864  -5.0565  -4.4236  -4.3763  -4.0862  -3.7670
    -2.8850  -2.0538  -2.0345  -1.8422  -1.6403  -1.5828  -1.4791  -1.4640
    -1.3716  -1.3611  -1.3139  -0.8457   0.7572   0.9950   1.1041   1.1588
     1.3008   1.3172   1.5578   1.7549   1.8442   1.9229

          k =-0.3333-0.3849 0.0000 ( 59291 PWs)   bands (ev):

   -72.8825 -72.8735 -44.4398 -44.3530 -44.2812 -44.2726 -44.2550 -44.2464
   -21.1150 -20.9174 -20.7203 -20.1592 -19.8069 -19.4671 -19.3180 -19.1738
   -19.0188 -18.7784 -18.6329 -18.5500 -18.1398 -18.1034 -17.9199 -17.7243
   -12.3480 -12.1122 -12.0453 -11.9098 -11.6818 -11.6572 -11.5543 -10.9427
   -10.8880 -10.6215 -10.5269  -9.8592  -9.6944  -9.3370  -9.1117  -8.6614
    -8.6226  -8.5536  -8.3915  -8.3863  -8.1615  -8.1108  -8.0632  -8.0533
    -7.6854  -7.6229  -7.5004  -7.4697  -7.3488  -7.1729  -7.0696  -6.8684
    -6.6210  -6.3906  -6.1790  -6.1600  -5.9697  -5.9279  -5.7836  -5.7573
    -5.4529  -5.3927  -5.1872  -5.0571  -4.4262  -4.3736  -4.0856  -3.7674
    -2.8888  -2.0546  -2.0347  -1.8417  -1.6391  -1.5830  -1.4789  -1.4641
    -1.3698  -1.3598  -1.3128  -0.8099   0.6975   0.9593   1.1011   1.1452
     1.2329   1.3813   1.4359   1.8072   1.9048   1.9200

          k = 0.5000 0.0962 0.0000 ( 59291 PWs)   bands (ev):

   -72.8825 -72.8735 -44.4398 -44.3530 -44.2812 -44.2726 -44.2550 -44.2464
   -21.1141 -20.9200 -20.7184 -20.1594 -19.8048 -19.4691 -19.3231 -19.1701
   -19.0158 -18.7802 -18.6314 -18.5509 -18.1371 -18.1066 -17.9197 -17.7241
   -12.3475 -12.1141 -12.0430 -11.9108 -11.6929 -11.6447 -11.5554 -10.9428
   -10.8885 -10.6222 -10.5260  -9.8584  -9.6944  -9.3376  -9.1108  -8.6581
    -8.6239  -8.5515  -8.4002  -8.3917  -8.1600  -8.1033  -8.0764  -8.0388
    -7.6852  -7.6243  -7.4937  -7.4760  -7.3502  -7.1728  -7.0690  -6.8602
    -6.6229  -6.3989  -6.1946  -6.1577  -5.9571  -5.9289  -5.7835  -5.7485
    -5.4531  -5.3981  -5.1864  -5.0565  -4.4236  -4.3763  -4.0863  -3.7670
    -2.8850  -2.0538  -2.0345  -1.8422  -1.6403  -1.5828  -1.4791  -1.4640
    -1.3716  -1.3611  -1.3139  -0.8457   0.7572   0.9950   1.1041   1.1588
     1.3008   1.3172   1.5578   1.7548   1.8442   1.9228

          k =-0.3333 0.3849 0.0000 ( 59291 PWs)   bands (ev):

   -72.8825 -72.8735 -44.4398 -44.3530 -44.2812 -44.2726 -44.2550 -44.2464
   -21.1150 -20.9174 -20.7203 -20.1591 -19.8069 -19.4671 -19.3180 -19.1738
   -19.0188 -18.7785 -18.6329 -18.5500 -18.1398 -18.1034 -17.9199 -17.7243
   -12.3480 -12.1122 -12.0454 -11.9098 -11.6819 -11.6572 -11.5543 -10.9427
   -10.8880 -10.6215 -10.5269  -9.8592  -9.6944  -9.3370  -9.1117  -8.6614
    -8.6226  -8.5536  -8.3916  -8.3863  -8.1615  -8.1108  -8.0632  -8.0533
    -7.6854  -7.6228  -7.5004  -7.4697  -7.3488  -7.1728  -7.0697  -6.8684
    -6.6210  -6.3906  -6.1790  -6.1601  -5.9697  -5.9280  -5.7835  -5.7573
    -5.4528  -5.3927  -5.1873  -5.0571  -4.4262  -4.3736  -4.0856  -3.7674
    -2.8888  -2.0546  -2.0347  -1.8417  -1.6391  -1.5830  -1.4789  -1.4641
    -1.3698  -1.3598  -1.3128  -0.8099   0.6975   0.9593   1.1011   1.1452
     1.2329   1.3814   1.4359   1.8071   1.9049   1.9198

          k =-0.1667-0.0962 0.0000 ( 59226 PWs)   bands (ev):

   -72.8825 -72.8735 -44.4398 -44.3530 -44.2812 -44.2726 -44.2550 -44.2464
   -21.3137 -20.5360 -20.3474 -20.3377 -19.9906 -19.9795 -19.8063 -18.7316
   -18.7209 -18.3763 -18.3681 -18.3551 -18.2702 -18.2618 -18.0792 -18.0706
   -12.5084 -12.5021 -12.4085 -11.5826 -11.5757 -11.4276 -11.4204 -10.9270
   -10.9237  -9.9304  -9.9261  -9.6761  -9.3753  -9.3727  -9.2310  -9.2283
    -9.0427  -9.0407  -8.9240  -8.3248  -8.3214  -7.9021  -7.8998  -7.8812
    -7.8455  -7.7709  -7.6114  -7.5804  -7.1380  -7.0895  -6.9598  -6.8891
    -6.8853  -6.8513  -6.5326  -6.5279  -6.2581  -5.3541  -5.3142  -5.1437
    -5.0659  -4.8098  -4.8006  -4.7488  -4.6157  -4.6076  -4.3560  -4.3295
    -2.9024  -2.0563  -2.0338  -1.8477  -1.6417  -1.5836  -1.4743  -1.4629
    -1.3663  -1.3578  -1.3072  -0.7192   0.7817   0.8440   1.0027   1.2116
     1.2598   1.3494   1.5837   1.6030   1.7312   1.9502

          k =-0.0000-0.1925 0.0000 ( 59226 PWs)   bands (ev):

   -72.8825 -72.8735 -44.4398 -44.3530 -44.2812 -44.2726 -44.2550 -44.2464
   -21.3138 -20.5310 -20.3539 -20.3401 -19.9874 -19.9751 -19.8098 -18.7308
   -18.7181 -18.3939 -18.3731 -18.3526 -18.2553 -18.2551 -18.0832 -18.0717
   -12.5097 -12.5008 -12.4084 -11.5845 -11.5755 -11.4268 -11.4180 -10.9284
   -10.9242  -9.9293  -9.9269  -9.6766  -9.3759  -9.3710  -9.2305  -9.2292
    -9.0427  -9.0411  -8.9246  -8.3242  -8.3210  -7.9011  -7.8991  -7.8644
    -7.8440  -7.7726  -7.6328  -7.5927  -7.1129  -7.0878  -6.9584  -6.8907
    -6.8854  -6.8629  -6.5328  -6.5269  -6.2587  -5.3439  -5.3161  -5.1440
    -5.0656  -4.8365  -4.8077  -4.7522  -4.5956  -4.5892  -4.3573  -4.3372
    -2.9060  -2.0572  -2.0341  -1.8471  -1.6405  -1.5837  -1.4747  -1.4628
    -1.3646  -1.3564  -1.3064  -0.6712   0.6693   0.8039   0.9929   1.1831
     1.2485   1.3797   1.5802   1.6192   1.6876   2.0031

          k = 0.5000-0.8660 0.0000 ( 59292 PWs)   bands (ev):

   -72.8825 -72.8735 -44.4399 -44.3530 -44.2812 -44.2726 -44.2549 -44.2464
   -21.0498 -21.0473 -20.4719 -20.4624 -19.4297 -19.4194 -19.4141 -19.4084
   -18.9924 -18.9898 -18.3258 -18.3205 -18.3164 -18.3152 -17.7960 -17.7872
   -12.0713 -12.0657 -12.0632 -12.0620 -11.8803 -11.8718 -11.3294 -11.3279
   -10.2366 -10.2307 -10.1367 -10.1333 -10.1299 -10.1257  -8.5913  -8.5501
    -8.5474  -8.5450  -8.5444  -8.5383  -7.8656  -7.8639  -7.8589  -7.8572
    -7.8257  -7.8197  -7.7838  -7.7513  -7.4900  -7.4874  -6.6135  -6.6065
    -6.3623  -6.3322  -6.3056  -6.2928  -6.1899  -6.1885  -5.7121  -5.6967
    -5.5459  -5.5427  -4.7299  -4.7212  -4.6957  -4.6910  -3.8914  -3.8651
    -2.8849  -2.0538  -2.0345  -1.8422  -1.6398  -1.5828  -1.4791  -1.4640
    -1.3716  -1.3611  -1.3138  -0.8459   0.7700   0.9994   1.1200   1.1564
     1.3694   1.5710   1.5869   1.6068   1.7371   1.7581

          k =-1.0000 0.0000 0.0000 ( 59292 PWs)   bands (ev):

   -72.8825 -72.8735 -44.4399 -44.3530 -44.2812 -44.2726 -44.2550 -44.2463
   -21.0746 -21.0197 -20.4762 -20.4627 -19.4244 -19.4210 -19.4201 -19.4002
   -19.0131 -18.9706 -18.3711 -18.3355 -18.2917 -18.2804 -17.7982 -17.7867
   -12.1023 -12.0814 -12.0395 -12.0348 -11.8820 -11.8709 -11.3508 -11.3089
   -10.2422 -10.2396 -10.1326 -10.1313 -10.1249 -10.1238  -8.6322  -8.5748
    -8.5580  -8.5279  -8.5173  -8.4912  -7.8754  -7.8694  -7.8608  -7.8603
    -7.8167  -7.8140  -7.7898  -7.7591  -7.5139  -7.4657  -6.6127  -6.6045
    -6.3559  -6.3297  -6.3083  -6.2797  -6.2087  -6.1726  -5.7378  -5.6776
    -5.5667  -5.5222  -4.7946  -4.7534  -4.6490  -4.6440  -3.8886  -3.8700
    -2.9004  -2.0561  -2.0349  -1.8401  -1.6368  -1.5834  -1.4793  -1.4636
    -1.3645  -1.3558  -1.3099  -0.6813   0.5457   0.7642   1.0629   1.1152
     1.1898   1.5487   1.5771   1.6000   1.6416   1.9372

 ------ SPIN DOWN ----------


          k = 0.1667 0.2887 0.0000 ( 59267 PWs)   bands (ev):

   -68.6879 -68.6776 -40.3798 -40.2772 -40.1019 -40.0916 -40.0561 -40.0458
   -21.2435 -20.6566 -20.6532 -20.1009 -20.0935 -19.5834 -19.5805 -19.0961
   -18.6930 -18.6883 -18.4541 -18.4472 -18.1908 -18.0818 -18.0757 -17.8462
   -12.4821 -12.2048 -12.1993 -11.8190 -11.8162 -11.6570 -11.1893 -11.1875
   -10.3896 -10.3657 -10.1152 -10.1130  -9.5868  -9.5863  -8.8247  -8.8205
    -8.8165  -8.7638  -8.7605  -8.5947  -8.1953  -8.0305  -8.0044  -7.8274
    -7.8252  -7.4360  -7.4343  -7.2635  -7.2458  -7.2060  -7.2048  -6.9593
    -6.9529  -6.5477  -6.5280  -6.1516  -6.1510  -5.8563  -5.4161  -5.2744
    -5.2622  -5.1981  -4.8980  -4.8887  -4.4909  -4.3425  -4.3313  -3.9664
    -1.4554   0.3909   0.7922   0.9900   1.1173   1.1879   1.2690   1.3495
     1.4190   1.4910   1.5535   1.6025   1.6385   1.7420   1.9016   1.9721
     2.0441   2.0997   2.1473   2.1849   2.2970   2.3443

          k = 0.1667-0.4811 0.0000 ( 59291 PWs)   bands (ev):

   -68.6879 -68.6776 -40.3798 -40.2772 -40.1019 -40.0916 -40.0561 -40.0458
   -21.1128 -20.9093 -20.7195 -20.1574 -19.8011 -19.4632 -19.3137 -19.1712
   -19.0110 -18.7754 -18.6368 -18.5416 -18.1440 -18.0876 -17.9185 -17.7203
   -12.3462 -12.1113 -12.0429 -11.9046 -11.6789 -11.6569 -11.5508 -10.9399
   -10.8879 -10.6213 -10.5212  -9.8578  -9.6914  -9.3338  -9.1090  -8.6456
    -8.6208  -8.5507  -8.3873  -8.3560  -8.1596  -8.1063  -8.0609  -8.0484
    -7.6864  -7.6214  -7.4921  -7.4726  -7.3392  -7.1685  -7.0659  -6.8454
    -6.6195  -6.3743  -6.1625  -6.1558  -5.9576  -5.9267  -5.7816  -5.7307
    -5.4494  -5.3831  -5.1880  -5.0331  -4.4249  -4.3419  -4.0760  -3.7545
    -1.4462   0.3786   0.7876   0.9536   1.0498   1.1320   1.2032   1.2819
     1.3638   1.4145   1.5735   1.7330   1.7952   1.8772   1.9046   2.0752
     2.1181   2.1401   2.1667   2.2242   2.3085   2.3424

          k = 0.1667-0.0962 0.0000 ( 59226 PWs)   bands (ev):

   -68.6879 -68.6776 -40.3798 -40.2772 -40.1019 -40.0916 -40.0561 -40.0458
   -21.3100 -20.5319 -20.3438 -20.3346 -19.9860 -19.9762 -19.8031 -18.7267
   -18.7172 -18.3715 -18.3644 -18.3515 -18.2658 -18.2580 -18.0754 -18.0674
   -12.5057 -12.5001 -12.4062 -11.5801 -11.5738 -11.4248 -11.4182 -10.9244
   -10.9214  -9.9277  -9.9239  -9.6734  -9.3729  -9.3704  -9.2279  -9.2256
    -9.0404  -9.0384  -8.9058  -8.3216  -8.3185  -7.8995  -7.8973  -7.8599
    -7.8417  -7.7686  -7.5952  -7.5703  -7.1135  -7.0790  -6.9572  -6.8865
    -6.8833  -6.8411  -6.5299  -6.5258  -6.2556  -5.3307  -5.3027  -5.1410
    -5.0631  -4.7913  -4.7844  -4.7374  -4.6019  -4.5947  -4.3404  -4.3204
    -1.4645   0.4051   0.7979   0.9884   1.0805   1.1493   1.2116   1.3181
     1.4686   1.5368   1.6066   1.6913   1.7795   1.8604   1.8905   1.9362
     1.9808   2.0558   2.1300   2.1430   2.2506   2.3149

          k =-0.5000-0.8660 0.0000 ( 59292 PWs)   bands (ev):

   -68.6879 -68.6776 -40.3798 -40.2772 -40.1019 -40.0916 -40.0561 -40.0458
   -21.0459 -21.0437 -20.4681 -20.4592 -19.4245 -19.4154 -19.4109 -19.4052
   -18.9887 -18.9861 -18.3201 -18.3175 -18.3148 -18.3094 -17.7917 -17.7836
   -12.0675 -12.0641 -12.0618 -12.0591 -11.8778 -11.8702 -11.3269 -11.3257
   -10.2337 -10.2287 -10.1334 -10.1306 -10.1273 -10.1235  -8.5636  -8.5448
    -8.5441  -8.5432  -8.5419  -8.5318  -7.8629  -7.8612  -7.8569  -7.8551
    -7.8220  -7.8165  -7.7667  -7.7410  -7.4882  -7.4847  -6.6104  -6.6044
    -6.3331  -6.3130  -6.2953  -6.2838  -6.1877  -6.1853  -5.6945  -5.6876
    -5.5434  -5.5398  -4.7082  -4.6987  -4.6880  -4.6853  -3.8749  -3.8553
    -1.4233   0.1430   0.7920   1.0392   1.0693   1.1315   1.2816   1.4199
     1.5178   1.5359   1.5897   1.6956   1.7612   1.8724   1.9234   1.9504
     1.9883   2.0450   2.1632   2.2239   2.3158   2.3475

          k =-0.1667 0.2887 0.0000 ( 59267 PWs)   bands (ev):

   -68.6879 -68.6776 -40.3798 -40.2772 -40.1019 -40.0916 -40.0561 -40.0458
   -21.2435 -20.6566 -20.6532 -20.1009 -20.0935 -19.5834 -19.5805 -19.0961
   -18.6930 -18.6883 -18.4541 -18.4472 -18.1908 -18.0818 -18.0757 -17.8462
   -12.4821 -12.2048 -12.1993 -11.8190 -11.8162 -11.6570 -11.1893 -11.1875
   -10.3896 -10.3657 -10.1152 -10.1130  -9.5869  -9.5863  -8.8246  -8.8205
    -8.8165  -8.7639  -8.7606  -8.5946  -8.1954  -8.0305  -8.0044  -7.8274
    -7.8251  -7.4360  -7.4344  -7.2635  -7.2459  -7.2060  -7.2048  -6.9594
    -6.9530  -6.5477  -6.5280  -6.1516  -6.1510  -5.8563  -5.4162  -5.2744
    -5.2623  -5.1980  -4.8980  -4.8887  -4.4910  -4.3425  -4.3313  -3.9664
    -1.4554   0.3909   0.7922   0.9900   1.1173   1.1879   1.2690   1.3495
     1.4190   1.4910   1.5535   1.6025   1.6385   1.7420   1.9017   1.9720
     2.0441   2.0997   2.1472   2.1851   2.2974   2.3445

          k = 0.3333 0.0000 0.0000 ( 59267 PWs)   bands (ev):

   -68.6879 -68.6776 -40.3798 -40.2772 -40.1019 -40.0916 -40.0561 -40.0458
   -21.2431 -20.6804 -20.6293 -20.1021 -20.0909 -19.6079 -19.5578 -19.0979
   -18.7080 -18.6690 -18.4574 -18.4455 -18.1867 -18.1026 -18.0607 -17.8455
   -12.4818 -12.2065 -12.1975 -11.8274 -11.8100 -11.6550 -11.2068 -11.1705
   -10.3889 -10.3654 -10.1273 -10.1013  -9.5930  -9.5791  -8.8317  -8.8201
    -8.8078  -8.7849  -8.7408  -8.5954  -8.1969  -8.0732  -7.9615  -7.8265
    -7.8242  -7.4414  -7.4284  -7.2726  -7.2327  -7.2152  -7.1955  -6.9619
    -6.9517  -6.5914  -6.4894  -6.1543  -6.1476  -5.8609  -5.4160  -5.2908
    -5.2384  -5.1983  -4.9047  -4.8838  -4.4845  -4.3668  -4.3160  -3.9654
    -1.4408   0.2229   0.8365   0.9946   1.0908   1.1567   1.2911   1.4367
     1.4771   1.4889   1.5528   1.7078   1.7678   1.8429   1.9040   1.9342
     2.0131   2.0858   2.1311   2.1924   2.3041   2.3291

          k =-0.1667-0.4811 0.0000 ( 59291 PWs)   bands (ev):

   -68.6879 -68.6776 -40.3798 -40.2772 -40.1019 -40.0916 -40.0561 -40.0458
   -21.1128 -20.9093 -20.7195 -20.1574 -19.8011 -19.4632 -19.3137 -19.1712
   -19.0110 -18.7754 -18.6368 -18.5416 -18.1440 -18.0876 -17.9185 -17.7203
   -12.3462 -12.1112 -12.0429 -11.9046 -11.6789 -11.6569 -11.5508 -10.9399
   -10.8879 -10.6213 -10.5212  -9.8578  -9.6913  -9.3338  -9.1090  -8.6456
    -8.6208  -8.5507  -8.3872  -8.3560  -8.1595  -8.1063  -8.0610  -8.0484
    -7.6864  -7.6215  -7.4921  -7.4726  -7.3392  -7.1684  -7.0659  -6.8454
    -6.6195  -6.3743  -6.1625  -6.1559  -5.9576  -5.9266  -5.7815  -5.7307
    -5.4495  -5.3831  -5.1879  -5.0332  -4.4249  -4.3419  -4.0760  -3.7545
    -1.4462   0.3786   0.7876   0.9536   1.0498   1.1320   1.2032   1.2819
     1.3637   1.4145   1.5735   1.7330   1.7952   1.8773   1.9045   2.0756
     2.1182   2.1400   2.1668   2.2240   2.3086   2.3424

          k = 0.5000-0.0962 0.0000 ( 59291 PWs)   bands (ev):

   -68.6879 -68.6776 -40.3798 -40.2772 -40.1019 -40.0916 -40.0561 -40.0458
   -21.1104 -20.9160 -20.7153 -20.1558 -19.8011 -19.4651 -19.3187 -19.1669
   -19.0119 -18.7764 -18.6278 -18.5469 -18.1332 -18.1020 -17.9162 -17.7200
   -12.3452 -12.1118 -12.0410 -11.9083 -11.6901 -11.6433 -11.5529 -10.9402
   -10.8859 -10.6197 -10.5235  -9.8557  -9.6920  -9.3347  -9.1085  -8.6383
    -8.6212  -8.5489  -8.3915  -8.3773  -8.1578  -8.0924  -8.0729  -8.0376
    -7.6829  -7.6220  -7.4913  -7.4737  -7.3347  -7.1697  -7.0666  -6.8450
    -6.6198  -6.3801  -6.1746  -6.1553  -5.9469  -5.9260  -5.7809  -5.7327
    -5.4505  -5.3839  -5.1711  -5.0434  -4.4073  -4.3638  -4.0736  -3.7540
    -1.4234   0.1447   0.7926   1.0135   1.0600   1.1317   1.1997   1.2884
     1.4156   1.5900   1.6874   1.7989   1.8601   1.9110   1.9615   1.9950
     2.0323   2.1126   2.2020   2.2376   2.3046   2.3546

          k =-0.3333-0.3849 0.0000 ( 59291 PWs)   bands (ev):

   -68.6879 -68.6776 -40.3798 -40.2772 -40.1019 -40.0916 -40.0561 -40.0458
   -21.1112 -20.9136 -20.7169 -20.1556 -19.8029 -19.4633 -19.3142 -19.1700
   -19.0145 -18.7748 -18.6290 -18.5463 -18.1354 -18.0994 -17.9163 -17.7202
   -12.3457 -12.1099 -12.0432 -11.9073 -11.6798 -11.6549 -11.5519 -10.9401
   -10.8856 -10.6191 -10.5242  -9.8564  -9.6920  -9.3342  -9.1093  -8.6405
    -8.6201  -8.5506  -8.3886  -8.3697  -8.1592  -8.0977  -8.0609  -8.0507
    -7.6831  -7.6206  -7.4973  -7.4681  -7.3338  -7.1698  -7.0671  -6.8506
    -6.6180  -6.3750  -6.1633  -6.1570  -5.9553  -5.9251  -5.7810  -5.7391
    -5.4503  -5.3802  -5.1720  -5.0435  -4.4095  -4.3614  -4.0732  -3.7543
    -1.4311   0.2103   0.7797   1.0039   1.0593   1.1399   1.2135   1.2968
     1.3937   1.5066   1.6823   1.7751   1.8593   1.9038   1.9437   2.0103
     2.0611   2.0854   2.1458   2.2205   2.3178   2.3439

          k = 0.5000 0.0962 0.0000 ( 59291 PWs)   bands (ev):

   -68.6879 -68.6776 -40.3798 -40.2772 -40.1019 -40.0916 -40.0561 -40.0458
   -21.1104 -20.9160 -20.7153 -20.1558 -19.8011 -19.4651 -19.3187 -19.1669
   -19.0119 -18.7764 -18.6278 -18.5469 -18.1332 -18.1021 -17.9162 -17.7200
   -12.3452 -12.1118 -12.0410 -11.9084 -11.6901 -11.6432 -11.5529 -10.9402
   -10.8859 -10.6197 -10.5235  -9.8557  -9.6920  -9.3347  -9.1084  -8.6383
    -8.6212  -8.5489  -8.3915  -8.3773  -8.1578  -8.0924  -8.0729  -8.0376
    -7.6829  -7.6219  -7.4913  -7.4737  -7.3347  -7.1698  -7.0665  -6.8450
    -6.6197  -6.3801  -6.1746  -6.1553  -5.9469  -5.9260  -5.7810  -5.7327
    -5.4505  -5.3839  -5.1711  -5.0434  -4.4073  -4.3637  -4.0736  -3.7541
    -1.4234   0.1448   0.7926   1.0135   1.0600   1.1317   1.1997   1.2884
     1.4155   1.5900   1.6874   1.7989   1.8601   1.9111   1.9614   1.9949
     2.0323   2.1126   2.2020   2.2382   2.3045   2.3546

          k =-0.3333 0.3849 0.0000 ( 59291 PWs)   bands (ev):

   -68.6879 -68.6776 -40.3798 -40.2772 -40.1019 -40.0916 -40.0561 -40.0458
   -21.1112 -20.9136 -20.7169 -20.1556 -19.8029 -19.4633 -19.3142 -19.1700
   -19.0144 -18.7748 -18.6290 -18.5462 -18.1354 -18.0994 -17.9163 -17.7202
   -12.3457 -12.1099 -12.0432 -11.9073 -11.6798 -11.6549 -11.5519 -10.9402
   -10.8856 -10.6191 -10.5242  -9.8564  -9.6920  -9.3342  -9.1093  -8.6405
    -8.6202  -8.5505  -8.3886  -8.3697  -8.1592  -8.0977  -8.0609  -8.0507
    -7.6831  -7.6205  -7.4973  -7.4681  -7.3338  -7.1698  -7.0671  -6.8506
    -6.6181  -6.3750  -6.1633  -6.1570  -5.9553  -5.9252  -5.7810  -5.7391
    -5.4502  -5.3801  -5.1720  -5.0435  -4.4095  -4.3614  -4.0732  -3.7542
    -1.4311   0.2103   0.7798   1.0039   1.0593   1.1399   1.2135   1.2968
     1.3937   1.5066   1.6822   1.7751   1.8593   1.9038   1.9436   2.0104
     2.0610   2.0852   2.1457   2.2205   2.3183   2.3435

          k =-0.1667-0.0962 0.0000 ( 59226 PWs)   bands (ev):

   -68.6879 -68.6776 -40.3798 -40.2772 -40.1019 -40.0916 -40.0561 -40.0458
   -21.3100 -20.5319 -20.3438 -20.3346 -19.9860 -19.9762 -19.8031 -18.7267
   -18.7172 -18.3715 -18.3644 -18.3515 -18.2658 -18.2580 -18.0754 -18.0674
   -12.5058 -12.5001 -12.4062 -11.5801 -11.5738 -11.4249 -11.4182 -10.9244
   -10.9214  -9.9277  -9.9239  -9.6733  -9.3729  -9.3703  -9.2279  -9.2256
    -9.0404  -9.0384  -8.9058  -8.3216  -8.3186  -7.8994  -7.8973  -7.8599
    -7.8416  -7.7687  -7.5952  -7.5703  -7.1135  -7.0790  -6.9573  -6.8865
    -6.8833  -6.8411  -6.5298  -6.5257  -6.2557  -5.3307  -5.3027  -5.1409
    -5.0632  -4.7913  -4.7844  -4.7374  -4.6019  -4.5947  -4.3404  -4.3204
    -1.4645   0.4051   0.7979   0.9884   1.0805   1.1493   1.2116   1.3181
     1.4687   1.5369   1.6066   1.6913   1.7794   1.8604   1.8905   1.9361
     1.9807   2.0556   2.1287   2.1431   2.2503   2.3148

          k =-0.0000-0.1925 0.0000 ( 59226 PWs)   bands (ev):

   -68.6879 -68.6776 -40.3798 -40.2772 -40.1019 -40.0916 -40.0561 -40.0458
   -21.3101 -20.5275 -20.3495 -20.3367 -19.9835 -19.9721 -19.8061 -18.7262
   -18.7146 -18.3874 -18.3680 -18.3491 -18.2533 -18.2522 -18.0790 -18.0681
   -12.5075 -12.4984 -12.4060 -11.5819 -11.5735 -11.4245 -11.4158 -10.9257
   -10.9218  -9.9270  -9.9245  -9.6737  -9.3731  -9.3690  -9.2278  -9.2264
    -9.0402  -9.0388  -8.9062  -8.3213  -8.3181  -7.8987  -7.8969  -7.8505
    -7.8378  -7.7701  -7.6093  -7.5801  -7.0973  -7.0761  -6.9560  -6.8881
    -6.8830  -6.8496  -6.5303  -6.5247  -6.2561  -5.3246  -5.3028  -5.1412
    -5.0629  -4.8116  -4.7898  -4.7384  -4.5880  -4.5815  -4.3424  -4.3246
    -1.4714   0.5378   0.7620   0.9682   1.0924   1.1540   1.1989   1.2935
     1.4465   1.4837   1.5269   1.6210   1.7288   1.8434   1.9329   1.9379
     2.0626   2.0734   2.1585   2.1641   2.2001   2.3228

          k = 0.5000-0.8660 0.0000 ( 59292 PWs)   bands (ev):

   -68.6879 -68.6776 -40.3798 -40.2772 -40.1019 -40.0916 -40.0561 -40.0458
   -21.0459 -21.0437 -20.4681 -20.4592 -19.4245 -19.4154 -19.4109 -19.4052
   -18.9887 -18.9861 -18.3201 -18.3176 -18.3148 -18.3094 -17.7917 -17.7836
   -12.0675 -12.0642 -12.0619 -12.0591 -11.8778 -11.8701 -11.3269 -11.3256
   -10.2337 -10.2287 -10.1334 -10.1306 -10.1273 -10.1236  -8.5636  -8.5448
    -8.5441  -8.5432  -8.5418  -8.5318  -7.8629  -7.8611  -7.8569  -7.8551
    -7.8220  -7.8165  -7.7667  -7.7410  -7.4883  -7.4847  -6.6104  -6.6043
    -6.3331  -6.3130  -6.2953  -6.2838  -6.1877  -6.1852  -5.6945  -5.6876
    -5.5435  -5.5399  -4.7081  -4.6987  -4.6881  -4.6852  -3.8749  -3.8554
    -1.4233   0.1431   0.7920   1.0392   1.0693   1.1315   1.2817   1.4199
     1.5178   1.5359   1.5896   1.6957   1.7611   1.8724   1.9234   1.9504
     1.9882   2.0450   2.1632   2.2239   2.3157   2.3469

          k =-1.0000 0.0000 0.0000 ( 59292 PWs)   bands (ev):

   -68.6879 -68.6776 -40.3798 -40.2772 -40.1019 -40.0916 -40.0561 -40.0457
   -21.0692 -21.0179 -20.4720 -20.4595 -19.4205 -19.4165 -19.4164 -19.3974
   -19.0073 -18.9688 -18.3634 -18.3292 -18.2904 -18.2797 -17.7937 -17.7830
   -12.0987 -12.0781 -12.0381 -12.0340 -11.8796 -11.8690 -11.3471 -11.3074
   -10.2393 -10.2364 -10.1297 -10.1290 -10.1223 -10.1221  -8.6020  -8.5706
    -8.5550  -8.5267  -8.5165  -8.4874  -7.8720  -7.8662  -7.8579  -7.8577
    -7.8119  -7.8111  -7.7721  -7.7468  -7.5103  -7.4646  -6.6100  -6.6024
    -6.3314  -6.3119  -6.2968  -6.2719  -6.2046  -6.1706  -5.7191  -5.6672
    -5.5626  -5.5210  -4.7642  -4.7306  -4.6463  -4.6418  -3.8741  -3.8576
    -1.4534   0.4977   0.8132   0.9331   1.0454   1.1371   1.2018   1.2738
     1.3472   1.4949   1.5851   1.6421   1.6733   1.7947   1.8632   1.8885
     2.1305   2.1456   2.1648   2.1899   2.3305   2.3320

     the Fermi energy is    -1.1721 ev

!    total energy              =   -1133.82832986 Ry

     total all-electron energy =     -6753.504033 Ry
     estimated scf accuracy    <       0.00000003 Ry
     smearing contrib. (-TS)   =      -0.00000000 Ry
     internal energy E=F+TS    =   -1133.82832986 Ry

     The total energy is F=E-TS. E is the sum of the following terms:
     one-electron contribution =   -3953.88464811 Ry
     hartree contribution      =    2005.13161544 Ry
     xc contribution           =    -186.02146330 Ry
     ewald contribution        =    1360.32322649 Ry
     DFT-D3 Dispersion         =      -0.13380410 Ry
     one-center paw contrib.   =    -359.24325628 Ry

     total magnetization       =    10.00 Bohr mag/cell
     absolute magnetization    =    10.01 Bohr mag/cell

     convergence has been achieved in  14 iterations

     Writing output data file ./mytmp/Crdimer0.1405-0.5.save/
 
     init_run     :     18.61s CPU     19.86s WALL (       1 calls)
     electrons    :    479.49s CPU    513.10s WALL (       1 calls)

     Called by init_run:
     wfcinit      :     13.86s CPU     14.67s WALL (       1 calls)
     potinit      :      1.50s CPU      1.61s WALL (       1 calls)
     hinit0       :      1.51s CPU      1.60s WALL (       1 calls)

     Called by electrons:
     c_bands      :    383.21s CPU    407.63s WALL (      14 calls)
     sum_band     :     74.73s CPU     80.09s WALL (      14 calls)
     v_of_rho     :      4.60s CPU      4.96s WALL (      15 calls)
     newd         :      9.42s CPU     12.44s WALL (      15 calls)
     PAW_pot      :      6.85s CPU      7.45s WALL (      15 calls)
     mix_rho      :      0.98s CPU      1.01s WALL (      14 calls)

     Called by c_bands:
     init_us_2    :      5.03s CPU      5.08s WALL (     870 calls)
     cegterg      :    370.87s CPU    395.19s WALL (     420 calls)

     Called by *egterg:
     cdiaghg      :     24.34s CPU     38.15s WALL (    2644 calls)
     h_psi        :    240.15s CPU    249.47s WALL (    2674 calls)
     s_psi        :     26.81s CPU     26.87s WALL (    2674 calls)
     g_psi        :      0.70s CPU      0.72s WALL (    2224 calls)

     Called by h_psi:
     h_psi:calbec :     27.52s CPU     28.35s WALL (    2674 calls)
     vloc_psi     :    183.67s CPU    192.02s WALL (    2674 calls)
     add_vuspsi   :     26.86s CPU     26.99s WALL (    2674 calls)

     General routines
     calbec       :     36.90s CPU     37.92s WALL (    3094 calls)
     fft          :      4.36s CPU      5.28s WALL (     369 calls)
     ffts         :      0.12s CPU      0.12s WALL (      58 calls)
     fftw         :    189.43s CPU    198.01s WALL (  248640 calls)
     interpolate  :      0.41s CPU      0.44s WALL (      30 calls)
 
     Parallel routines
     fft_scatt_xy :     29.79s CPU     30.93s WALL (  249067 calls)
     fft_scatt_yz :     75.72s CPU     80.74s WALL (  249067 calls)
 
     PWSCF        :   8m20.15s CPU   8m57.21s WALL

 
   This run was terminated on:  11:51: 3   2Apr2021            

=------------------------------------------------------------------------------=
   JOB DONE.
=------------------------------------------------------------------------------=
