
     Program PWSCF v.6.7MaX starts on  2Apr2021 at 16:34:35 

     This program is part of the open-source Quantum ESPRESSO suite
     for quantum simulation of materials; please cite
         "P. Giannozzi et al., J. Phys.:Condens. Matter 21 395502 (2009);
         "P. Giannozzi et al., J. Phys.:Condens. Matter 29 465901 (2017);
          URL http://www.quantum-espresso.org", 
     in publications or presentations arising from this work. More details at
     http://www.quantum-espresso.org/quote

     Parallel version (MPI), running on    48 processors

     MPI processes distributed on     1 nodes
     R & G space division:  proc/nbgrp/npool/nimage =      48
     Reading input from Crdimer0.1435-0.5.scf.in

     Current dimensions of program PWSCF are:
     Max number of different atomic species (ntypx) = 10
     Max number of k-points (npk) =  40000
     Max angular momentum in pseudopotentials (lmaxx) =  3
     file N.pbe-n-kjpaw_psl.1.0.0.UPF: wavefunction(s)  2S renormalized
     file Cr.pbe-spn-kjpaw_psl.1.0.0.UPF: wavefunction(s)  3S 3P 3D renormalized
     file Cr.pbe-spn-kjpaw_psl.1.0.0.UPF: wavefunction(s)  3S 3P 3D renormalized

     --------------------------------------------
     Parameters for DFT-D3 Dispersion Correction:
     --------------------------------------------
       Reference C6 values for interpolation: 

         atom   Coordination number   C6
         B          0.000           214.36
         B          0.971           150.74
         B          1.944           106.23
         B          2.913            62.89
         B          4.586            56.06
         N          0.000            50.54
         N          0.994            44.25
         N          2.014            39.35
         N          2.990            31.16
         Cr1        0.000          1381.48
         Cr1        1.827           571.38
         Cr1       10.619           306.69
         Cr2        0.000          1381.48
         Cr2        1.827           571.38
         Cr2       10.619           306.69

       Values used:

         atom   Coordination number  R0_AB[au]  C6      C8
         B          3.336            3.039     62.89   2505.99
         B          3.340            3.039     62.89   2505.89
         B          3.335            3.039     62.89   2506.01
         B          3.335            3.039     62.89   2506.01
         B          3.340            3.039     62.89   2505.89
         B          3.336            3.039     62.89   2505.99
         N          3.134            2.478     31.22    688.69
         N          3.158            2.478     31.21    688.49
         N          3.134            2.478     31.22    688.69
         N          3.134            2.478     31.22    688.70
         N          3.142            2.478     31.21    688.63
         N          3.136            2.478     31.22    688.68
         N          3.140            2.478     31.22    688.64
         N          3.135            2.478     31.22    688.69
         N          3.134            2.478     31.22    688.70
         B          3.360            3.039     62.88   2505.36
         B          3.340            3.039     62.89   2505.89
         B          3.336            3.039     62.89   2505.99
         B          3.340            3.039     62.89   2505.89
         B          3.336            3.039     62.89   2505.99
         B          3.360            3.039     62.88   2505.36
         N          3.140            2.478     31.22    688.64
         B          3.336            3.039     62.89   2505.99
         B          3.364            3.039     62.87   2505.23
         B          3.335            3.039     62.89   2506.01
         N          3.136            2.478     31.22    688.68
         N          3.158            2.478     31.21    688.49
         N          3.135            2.478     31.22    688.69
         N          3.135            2.478     31.22    688.69
         N          3.134            2.478     31.22    688.69
         N          3.134            2.478     31.22    688.70
         B          3.335            3.039     62.89   2506.01
         Cr1        0.677            3.252   1349.99 124588.88
         Cr2        0.677            3.252   1349.99 124588.88

         Molecular C6 ( Ry / a.u.^6 ) =     78804.23


     Subspace diagonalization in iterative solution of the eigenvalue problem:
     one sub-group per band group will be used
     scalapack distributed-memory algorithm (size of sub-group:  6*  6 procs)

 
     Parallelization info
     --------------------
     sticks:   dense  smooth     PW     G-vecs:    dense   smooth      PW
     Min         235      98     26                36277     9874    1408
     Max         236      99     27                36282     9883    1425
     Sum       11311    4741   1285              1741401   474235   68095
 


     bravais-lattice index     =            4
     lattice parameter (alat)  =      18.9275  a.u.
     unit-cell volume          =   10553.3021 (a.u.)^3
     number of atoms/cell      =           34
     number of atomic types    =            4
     number of electrons       =       156.00
     number of Kohn-Sham states=           94
     kinetic-energy cutoff     =      48.0000  Ry
     charge density cutoff     =     457.0000  Ry
     scf convergence threshold =      1.0E-07
     mixing beta               =       0.5000
     number of iterations used =            8  plain     mixing
     Exchange-correlation= SLA  PW   PBX  PBC
                           (   1   4   3   4   0   0   0)

     celldm(1)=  18.927497  celldm(2)=   0.000000  celldm(3)=   1.797125
     celldm(4)=   0.000000  celldm(5)=   0.000000  celldm(6)=   0.000000

     crystal axes: (cart. coord. in units of alat)
               a(1) = (   1.000000   0.000000   0.000000 )  
               a(2) = (  -0.500000   0.866025   0.000000 )  
               a(3) = (   0.000000   0.000000   1.797125 )  

     reciprocal axes: (cart. coord. in units 2 pi/alat)
               b(1) = (  1.000000  0.577350  0.000000 )  
               b(2) = (  0.000000  1.154701  0.000000 )  
               b(3) = (  0.000000  0.000000  0.556444 )  


     PseudoPot. # 1 for B  read from file:
     /home/sf05/q-e-qe-6.7MaX-Release/pseudo/B.pbe-n-kjpaw_psl.1.0.0.UPF
     MD5 check sum: d9c678ba5d3b2fd7b74e61139c9288d8
     Pseudo is Projector augmented-wave + core cor, Zval =  3.0
     Generated using "atomic" code by A. Dal Corso  v.5.1.2
     Shape of augmentation charge: PSQ
     Using radial grid of 1059 points,  4 beta functions with: 
                l(1) =   0
                l(2) =   0
                l(3) =   1
                l(4) =   1
     Q(r) pseudized with 0 coefficients 


     PseudoPot. # 2 for N  read from file:
     /home/sf05/q-e-qe-6.7MaX-Release/pseudo/N.pbe-n-kjpaw_psl.1.0.0.UPF
     MD5 check sum: e0e4e94a9c4025c5b51bd7d8793849bd
     Pseudo is Projector augmented-wave + core cor, Zval =  5.0
     Generated using "atomic" code by A. Dal Corso  v.5.1.2
     Shape of augmentation charge: PSQ
     Using radial grid of 1085 points,  4 beta functions with: 
                l(1) =   0
                l(2) =   0
                l(3) =   1
                l(4) =   1
     Q(r) pseudized with 0 coefficients 


     PseudoPot. # 3 for Cr read from file:
     /home/sf05/q-e-qe-6.7MaX-Release/pseudo/Cr.pbe-spn-kjpaw_psl.1.0.0.UPF
     MD5 check sum: 198f1a2427a48552563eee314eba32ba
     Pseudo is Projector augmented-wave + core cor, Zval = 14.0
     Generated using &quot;atomic&quot; code by A. Dal Corso  v.6.3
     Shape of augmentation charge: PSQ
     Using radial grid of 1183 points,  6 beta functions with: 
                l(1) =   0
                l(2) =   0
                l(3) =   1
                l(4) =   1
                l(5) =   2
                l(6) =   2
     Q(r) pseudized with 0 coefficients 


     PseudoPot. # 4 for Cr read from file:
     /home/sf05/q-e-qe-6.7MaX-Release/pseudo/Cr.pbe-spn-kjpaw_psl.1.0.0.UPF
     MD5 check sum: 198f1a2427a48552563eee314eba32ba
     Pseudo is Projector augmented-wave + core cor, Zval = 14.0
     Generated using &quot;atomic&quot; code by A. Dal Corso  v.6.3
     Shape of augmentation charge: PSQ
     Using radial grid of 1183 points,  6 beta functions with: 
                l(1) =   0
                l(2) =   0
                l(3) =   1
                l(4) =   1
                l(5) =   2
                l(6) =   2
     Q(r) pseudized with 0 coefficients 


     atomic species   valence    mass     pseudopotential
        B              3.00    10.81100     B ( 1.00)
        N              5.00    14.00674     N ( 1.00)
        Cr1           14.00    51.99610     Cr( 1.00)
        Cr2           14.00    51.99610     Cr( 1.00)

     Starting magnetic structure 
     atomic species   magnetization
        B            0.000
        N            0.000
        Cr1          1.000
        Cr2          1.000

     No symmetry found



   Cartesian axes

     site n.     atom                  positions (alat units)
         1           B   tau(   1) = (  -0.1250000   0.2165064   0.8985623  )
         2           B   tau(   2) = (   0.3750000   0.6495191   0.8985623  )
         3           B   tau(   3) = (   0.2500000   0.0000000   0.8985623  )
         4           B   tau(   4) = (   0.7500000   0.0000000   0.8985623  )
         5           B   tau(   5) = (   0.1250000   0.2165064   0.8985623  )
         6           B   tau(   6) = (  -0.3750000   0.6495191   0.8985623  )
         7           N   tau(   7) = (   0.7500005   0.2886748   0.8985623  )
         8           N   tau(   8) = (   0.3750005   0.5051812   0.8985623  )
         9           N   tau(   9) = (   0.3750005   0.0721685   0.8985623  )
        10           N   tau(  10) = (   0.6250005   0.0721685   0.8985623  )
        11           N   tau(  11) = (   0.2500005   0.2886748   0.8985623  )
        12           N   tau(  12) = (   0.6250005   0.5051812   0.8985623  )
        13           N   tau(  13) = (   0.0000005   0.2886748   0.8985623  )
        14           N   tau(  14) = (   0.2500005   0.7216875   0.8985623  )
        15           N   tau(  15) = (  -0.2499995   0.7216875   0.8985623  )
        16           B   tau(  16) = (   0.0000000   0.4330127   0.8985623  )
        17           B   tau(  17) = (   0.1250000   0.6495191   0.8985623  )
        18           B   tau(  18) = (  -0.1250000   0.6495191   0.8985623  )
        19           B   tau(  19) = (   0.3750000   0.2165064   0.8985623  )
        20           B   tau(  20) = (   0.6250000   0.2165064   0.8985623  )
        21           B   tau(  21) = (   0.5000000   0.4330127   0.8985623  )
        22           N   tau(  22) = (   0.5000005   0.2886748   0.8985623  )
        23           B   tau(  23) = (  -0.2500000   0.4330127   0.8985623  )
        24           B   tau(  24) = (   0.2500000   0.4330127   0.8985623  )
        25           B   tau(  25) = (   0.5000000   0.0000000   0.8985623  )
        26           N   tau(  26) = (  -0.1249995   0.5051812   0.8985623  )
        27           N   tau(  27) = (   0.1250005   0.5051812   0.8985623  )
        28           N   tau(  28) = (   0.0000005   0.7216875   0.8985623  )
        29           N   tau(  29) = (   0.5000005   0.7216875   0.8985623  )
        30           N   tau(  30) = (   0.1250005   0.0721685   0.8985623  )
        31           N   tau(  31) = (   0.8750005   0.0721685   0.8985623  )
        32           B   tau(  32) = (   0.0000000   0.0000000   0.8985623  )
        33           Cr1 tau(  33) = (   0.3935000   0.4330127   1.2040735  )
        34           Cr2 tau(  34) = (   0.1065000   0.4330127   1.2040735  )

     number of k points=    15  Gaussian smearing, width (Ry)=  0.0000
                       cart. coord. in units 2pi/alat
        k(    1) = (   0.1666667   0.2886751   0.0000000), wk =   0.0740741
        k(    2) = (   0.1666667  -0.4811252   0.0000000), wk =   0.0740741
        k(    3) = (   0.1666667  -0.0962250   0.0000000), wk =   0.0740741
        k(    4) = (  -0.5000000  -0.8660254   0.0000000), wk =   0.0370370
        k(    5) = (  -0.1666667   0.2886751   0.0000000), wk =   0.0740741
        k(    6) = (   0.3333333   0.0000000   0.0000000), wk =   0.0740741
        k(    7) = (  -0.1666667  -0.4811252   0.0000000), wk =   0.0740741
        k(    8) = (   0.5000000  -0.0962250   0.0000000), wk =   0.0740741
        k(    9) = (  -0.3333333  -0.3849002   0.0000000), wk =   0.0740741
        k(   10) = (   0.5000000   0.0962250   0.0000000), wk =   0.0740741
        k(   11) = (  -0.3333333   0.3849002   0.0000000), wk =   0.0740741
        k(   12) = (  -0.1666667  -0.0962250   0.0000000), wk =   0.0740741
        k(   13) = (  -0.0000000  -0.1924501   0.0000000), wk =   0.0740741
        k(   14) = (   0.5000000  -0.8660254   0.0000000), wk =   0.0370370
        k(   15) = (  -1.0000000   0.0000000   0.0000000), wk =   0.0370370

     Dense  grid:  1741401 G-vectors     FFT dimensions: ( 135, 135, 240)

     Smooth grid:   474235 G-vectors     FFT dimensions: (  90,  90, 160)

     Estimated max dynamical RAM per process >     218.62 MB

     Estimated total dynamical RAM >      10.25 GB
     Generating pointlists ...
     new r_m :   0.0595 (alat units)  1.1269 (a.u.) for type    1
     new r_m :   0.0595 (alat units)  1.1269 (a.u.) for type    2
     new r_m :   0.1184 (alat units)  2.2408 (a.u.) for type    3
     new r_m :   0.1184 (alat units)  2.2408 (a.u.) for type    4

     Initial potential from superposition of free atoms

     starting charge  155.99382, renormalised to  156.00000

     negative rho (up, down):  6.703E-03 4.655E-04
     Starting wfcs are  148 randomized atomic wfcs
     Checking if some PAW data can be deallocated... 

     total cpu time spent up to now is       20.5 secs

     Self-consistent Calculation

     iteration #  1     ecut=    48.00 Ry     beta= 0.50
     Davidson diagonalization with overlap
     ethr =  1.00E-02,  avg # of iterations =  2.8

     negative rho (up, down):  4.887E-03 2.907E-03

     total cpu time spent up to now is       64.0 secs

     total energy              =   -1130.74022213 Ry
     estimated scf accuracy    <      11.36542976 Ry

     total magnetization       =    12.00 Bohr mag/cell
     absolute magnetization    =    12.12 Bohr mag/cell

     iteration #  2     ecut=    48.00 Ry     beta= 0.50
     Davidson diagonalization with overlap
     ethr =  7.29E-03,  avg # of iterations =  2.8

     negative rho (up, down):  8.837E-03 8.040E-03

     total cpu time spent up to now is      103.0 secs

     total energy              =   -1132.91532342 Ry
     estimated scf accuracy    <       3.79285299 Ry

     total magnetization       =    10.00 Bohr mag/cell
     absolute magnetization    =    10.07 Bohr mag/cell

     iteration #  3     ecut=    48.00 Ry     beta= 0.50
     Davidson diagonalization with overlap
     ethr =  2.43E-03,  avg # of iterations =  7.0

     negative rho (up, down):  4.080E-03 4.141E-03

     total cpu time spent up to now is      142.6 secs

     total energy              =   -1133.56551068 Ry
     estimated scf accuracy    <       0.84398214 Ry

     total magnetization       =    12.00 Bohr mag/cell
     absolute magnetization    =    12.05 Bohr mag/cell

     iteration #  4     ecut=    48.00 Ry     beta= 0.50
     Davidson diagonalization with overlap
     ethr =  5.41E-04,  avg # of iterations =  6.2

     negative rho (up, down):  6.757E-03 7.505E-03

     total cpu time spent up to now is      179.6 secs

     total energy              =   -1133.78574999 Ry
     estimated scf accuracy    <       0.43888664 Ry

     total magnetization       =    10.00 Bohr mag/cell
     absolute magnetization    =    10.02 Bohr mag/cell

     iteration #  5     ecut=    48.00 Ry     beta= 0.50
     Davidson diagonalization with overlap
     ethr =  2.81E-04,  avg # of iterations =  6.5

     negative rho (up, down):  4.835E-03 5.175E-03

     total cpu time spent up to now is      217.5 secs

     total energy              =   -1133.81788277 Ry
     estimated scf accuracy    <       0.02722642 Ry

     total magnetization       =    10.00 Bohr mag/cell
     absolute magnetization    =    10.02 Bohr mag/cell

     iteration #  6     ecut=    48.00 Ry     beta= 0.50
     Davidson diagonalization with overlap
     c_bands:  1 eigenvalues not converged
     ethr =  1.75E-05,  avg # of iterations = 12.4

     negative rho (up, down):  3.801E-03 3.911E-03

     total cpu time spent up to now is      268.3 secs

     total energy              =   -1133.82123606 Ry
     estimated scf accuracy    <       0.02595338 Ry

     total magnetization       =    10.00 Bohr mag/cell
     absolute magnetization    =    10.02 Bohr mag/cell

     iteration #  7     ecut=    48.00 Ry     beta= 0.50
     Davidson diagonalization with overlap
     ethr =  1.66E-05,  avg # of iterations =  6.4

     negative rho (up, down):  3.409E-03 3.847E-03

     total cpu time spent up to now is      307.1 secs

     total energy              =   -1133.82675439 Ry
     estimated scf accuracy    <       0.00282687 Ry

     total magnetization       =    10.00 Bohr mag/cell
     absolute magnetization    =    10.02 Bohr mag/cell

     iteration #  8     ecut=    48.00 Ry     beta= 0.50
     Davidson diagonalization with overlap
     ethr =  1.81E-06,  avg # of iterations =  9.3

     negative rho (up, down):  3.187E-03 3.730E-03

     total cpu time spent up to now is      350.0 secs

     total energy              =   -1133.82753366 Ry
     estimated scf accuracy    <       0.00048213 Ry

     total magnetization       =    10.00 Bohr mag/cell
     absolute magnetization    =    10.01 Bohr mag/cell

     iteration #  9     ecut=    48.00 Ry     beta= 0.50
     Davidson diagonalization with overlap
     ethr =  3.09E-07,  avg # of iterations =  3.1

     negative rho (up, down):  3.144E-03 3.737E-03

     total cpu time spent up to now is      382.2 secs

     total energy              =   -1133.82772448 Ry
     estimated scf accuracy    <       0.00006953 Ry

     total magnetization       =    10.00 Bohr mag/cell
     absolute magnetization    =    10.01 Bohr mag/cell

     iteration # 10     ecut=    48.00 Ry     beta= 0.50
     Davidson diagonalization with overlap
     ethr =  4.46E-08,  avg # of iterations =  4.6

     negative rho (up, down):  3.120E-03 3.745E-03

     total cpu time spent up to now is      423.0 secs

     total energy              =   -1133.82779486 Ry
     estimated scf accuracy    <       0.00002988 Ry

     total magnetization       =    10.00 Bohr mag/cell
     absolute magnetization    =    10.01 Bohr mag/cell

     iteration # 11     ecut=    48.00 Ry     beta= 0.50
     Davidson diagonalization with overlap
     ethr =  1.92E-08,  avg # of iterations =  3.9

     negative rho (up, down):  3.115E-03 3.764E-03

     total cpu time spent up to now is      455.6 secs

     total energy              =   -1133.82782395 Ry
     estimated scf accuracy    <       0.00000723 Ry

     total magnetization       =    10.00 Bohr mag/cell
     absolute magnetization    =    10.01 Bohr mag/cell

     iteration # 12     ecut=    48.00 Ry     beta= 0.50
     Davidson diagonalization with overlap
     ethr =  4.63E-09,  avg # of iterations =  4.6

     negative rho (up, down):  3.112E-03 3.785E-03

     total cpu time spent up to now is      490.9 secs

     total energy              =   -1133.82783607 Ry
     estimated scf accuracy    <       0.00000433 Ry

     total magnetization       =    10.00 Bohr mag/cell
     absolute magnetization    =    10.01 Bohr mag/cell

     iteration # 13     ecut=    48.00 Ry     beta= 0.50
     Davidson diagonalization with overlap
     ethr =  2.78E-09,  avg # of iterations =  4.8

     negative rho (up, down):  3.108E-03 3.790E-03

     total cpu time spent up to now is      525.0 secs

     total energy              =   -1133.82784192 Ry
     estimated scf accuracy    <       0.00000032 Ry

     total magnetization       =    10.00 Bohr mag/cell
     absolute magnetization    =    10.01 Bohr mag/cell

     iteration # 14     ecut=    48.00 Ry     beta= 0.50
     Davidson diagonalization with overlap
     ethr =  2.04E-10,  avg # of iterations =  5.3

     negative rho (up, down):  3.106E-03 3.792E-03

     total cpu time spent up to now is      561.0 secs

     total energy              =   -1133.82784287 Ry
     estimated scf accuracy    <       0.00000010 Ry

     total magnetization       =    10.00 Bohr mag/cell
     absolute magnetization    =    10.01 Bohr mag/cell

     iteration # 15     ecut=    48.00 Ry     beta= 0.50
     Davidson diagonalization with overlap
     ethr =  6.46E-11,  avg # of iterations =  5.1

     negative rho (up, down):  3.106E-03 3.792E-03
 
     Magnetic moment per site:
     atom:    1    charge:    0.8806    magn:    0.0004    constr:    0.0000
     atom:    2    charge:    0.8801    magn:    0.0008    constr:    0.0000
     atom:    3    charge:    0.8802    magn:    0.0001    constr:    0.0000
     atom:    4    charge:    0.8803    magn:    0.0001    constr:    0.0000
     atom:    5    charge:    0.8800    magn:    0.0001    constr:    0.0000
     atom:    6    charge:    0.8805    magn:    0.0001    constr:    0.0000
     atom:    7    charge:    2.8610    magn:    0.0004    constr:    0.0000
     atom:    8    charge:    2.8610    magn:    0.0063    constr:    0.0000
     atom:    9    charge:    2.8609    magn:    0.0003    constr:    0.0000
     atom:   10    charge:    2.8609    magn:    0.0002    constr:    0.0000
     atom:   11    charge:    2.8604    magn:    0.0045    constr:    0.0000
     atom:   12    charge:    2.8609    magn:    0.0014    constr:    0.0000
     atom:   13    charge:    2.8596    magn:    0.0041    constr:    0.0000
     atom:   14    charge:    2.8597    magn:    0.0009    constr:    0.0000
     atom:   15    charge:    2.8600    magn:    0.0000    constr:    0.0000
     atom:   16    charge:    0.8807    magn:   -0.0000    constr:    0.0000
     atom:   17    charge:    0.8798    magn:    0.0008    constr:    0.0000
     atom:   18    charge:    0.8802    magn:    0.0001    constr:    0.0000
     atom:   19    charge:    0.8794    magn:    0.0001    constr:    0.0000
     atom:   20    charge:    0.8800    magn:    0.0004    constr:    0.0000
     atom:   21    charge:    0.8805    magn:   -0.0000    constr:    0.0000
     atom:   22    charge:    2.8609    magn:    0.0041    constr:    0.0000
     atom:   23    charge:    0.8804    magn:    0.0002    constr:    0.0000
     atom:   24    charge:    0.8788    magn:    0.0002    constr:    0.0000
     atom:   25    charge:    0.8799    magn:    0.0001    constr:    0.0000
     atom:   26    charge:    2.8598    magn:    0.0014    constr:    0.0000
     atom:   27    charge:    2.8598    magn:    0.0063    constr:    0.0000
     atom:   28    charge:    2.8598    magn:    0.0007    constr:    0.0000
     atom:   29    charge:    2.8596    magn:    0.0007    constr:    0.0000
     atom:   30    charge:    2.8596    magn:    0.0003    constr:    0.0000
     atom:   31    charge:    2.8596    magn:    0.0002    constr:    0.0000
     atom:   32    charge:    0.8802    magn:    0.0001    constr:    0.0000
     atom:   33    charge:   12.5572    magn:    4.2636    constr:    0.0000
     atom:   34    charge:   12.5572    magn:    4.2636    constr:    0.0000

     total cpu time spent up to now is      597.5 secs

     End of self-consistent calculation

 ------ SPIN UP ------------


          k = 0.1667 0.2887 0.0000 ( 59267 PWs)   bands (ev):

   -72.8818 -72.8750 -44.4291 -44.3594 -44.2822 -44.2754 -44.2560 -44.2492
   -21.2476 -20.6609 -20.6570 -20.1055 -20.0971 -19.5873 -19.5847 -19.1003
   -18.6981 -18.6925 -18.4587 -18.4510 -18.1959 -18.0861 -18.0791 -17.8505
   -12.4848 -12.2080 -12.2017 -11.8217 -11.8186 -11.6594 -11.1921 -11.1903
   -10.3928 -10.3685 -10.1186 -10.1157  -9.5898  -9.5890  -8.8374  -8.8269
    -8.8233  -8.7666  -8.7632  -8.5974  -8.1980  -8.0534  -8.0152  -7.8303
    -7.8278  -7.4398  -7.4375  -7.2839  -7.2581  -7.2086  -7.2077  -6.9624
    -6.9553  -6.5679  -6.5374  -6.1547  -6.1538  -5.8725  -5.4195  -5.2973
    -5.2741  -5.2011  -4.9133  -4.9009  -4.5084  -4.3582  -4.3400  -3.9804
    -2.8450  -2.0151  -1.9935  -1.8173  -1.6319  -1.5767  -1.4897  -1.4763
    -1.3882  -1.3835  -1.3339  -0.7608   0.6819   0.8468   1.0562   1.2010
     1.2961   1.4815   1.5187   1.5742   1.6086   1.7980

          k = 0.1667-0.4811 0.0000 ( 59291 PWs)   bands (ev):

   -72.8818 -72.8751 -44.4291 -44.3594 -44.2821 -44.2754 -44.2560 -44.2492
   -21.1172 -20.9128 -20.7237 -20.1616 -19.8051 -19.4674 -19.3178 -19.1755
   -19.0152 -18.7795 -18.6424 -18.5451 -18.1501 -18.0901 -17.9230 -17.7248
   -12.3489 -12.1140 -12.0455 -11.9071 -11.6812 -11.6598 -11.5534 -10.9429
   -10.8909 -10.6243 -10.5239  -9.8611  -9.6941  -9.3370  -9.1118  -8.6686
    -8.6237  -8.5540  -8.3899  -8.3678  -8.1624  -8.1235  -8.0636  -8.0510
    -7.6895  -7.6242  -7.4950  -7.4751  -7.3568  -7.1717  -7.0686  -6.8612
    -6.6230  -6.3898  -6.1786  -6.1587  -5.9730  -5.9301  -5.7846  -5.7459
    -5.4524  -5.3979  -5.2101  -5.0425  -4.4459  -4.3486  -4.0899  -3.7681
    -2.8420  -2.0148  -1.9941  -1.8138  -1.6302  -1.5765  -1.4924  -1.4767
    -1.3880  -1.3833  -1.3359  -0.7652   0.5959   0.8330   1.0756   1.1142
     1.2434   1.2726   1.3963   1.8406   1.9296   2.1080

          k = 0.1667-0.0962 0.0000 ( 59226 PWs)   bands (ev):

   -72.8818 -72.8750 -44.4291 -44.3594 -44.2822 -44.2754 -44.2560 -44.2492
   -21.3140 -20.5364 -20.3478 -20.3381 -19.9908 -19.9800 -19.8066 -18.7319
   -18.7214 -18.3767 -18.3684 -18.3556 -18.2708 -18.2620 -18.0795 -18.0710
   -12.5089 -12.5023 -12.4089 -11.5829 -11.5762 -11.4281 -11.4206 -10.9274
   -10.9241  -9.9307  -9.9264  -9.6765  -9.3757  -9.3731  -9.2313  -9.2286
    -9.0431  -9.0410  -8.9242  -8.3251  -8.3218  -7.9025  -7.9002  -7.8815
    -7.8459  -7.7712  -7.6115  -7.5810  -7.1378  -7.0904  -6.9601  -6.8894
    -6.8858  -6.8517  -6.5330  -6.5284  -6.2584  -5.3539  -5.3149  -5.1442
    -5.0662  -4.8100  -4.8008  -4.7490  -4.6163  -4.6080  -4.3560  -4.3301
    -2.8483  -2.0154  -1.9930  -1.8207  -1.6344  -1.5769  -1.4872  -1.4758
    -1.3882  -1.3839  -1.3322  -0.7563   0.7817   0.8464   1.0074   1.2102
     1.2603   1.3472   1.5825   1.6011   1.7292   1.9360

          k =-0.5000-0.8660 0.0000 ( 59292 PWs)   bands (ev):

   -72.8818 -72.8751 -44.4291 -44.3594 -44.2822 -44.2754 -44.2560 -44.2492
   -21.0500 -21.0478 -20.4722 -20.4628 -19.4301 -19.4196 -19.4149 -19.4086
   -18.9926 -18.9903 -18.3259 -18.3214 -18.3175 -18.3146 -17.7964 -17.7876
   -12.0715 -12.0665 -12.0640 -12.0617 -11.8805 -11.8723 -11.3297 -11.3284
   -10.2369 -10.2311 -10.1371 -10.1336 -10.1304 -10.1260  -8.5901  -8.5511
    -8.5477  -8.5457  -8.5451  -8.5390  -7.8659  -7.8643  -7.8593  -7.8577
    -7.8261  -7.8199  -7.7838  -7.7521  -7.4907  -7.4874  -6.6139  -6.6070
    -6.3631  -6.3313  -6.3069  -6.2929  -6.1906  -6.1888  -5.7121  -5.6973
    -5.5463  -5.5428  -4.7293  -4.7202  -4.6971  -4.6925  -3.8915  -3.8657
    -2.8288  -2.0125  -1.9934  -1.8154  -1.6325  -1.5759  -1.4934  -1.4764
    -1.3932  -1.3872  -1.3391  -0.8853   0.7833   0.9967   1.1205   1.1667
     1.3629   1.5668   1.5843   1.6052   1.7297   1.7456

          k =-0.1667 0.2887 0.0000 ( 59267 PWs)   bands (ev):

   -72.8818 -72.8750 -44.4291 -44.3594 -44.2822 -44.2754 -44.2560 -44.2492
   -21.2476 -20.6609 -20.6570 -20.1055 -20.0971 -19.5873 -19.5847 -19.1003
   -18.6981 -18.6925 -18.4588 -18.4510 -18.1959 -18.0861 -18.0791 -17.8505
   -12.4847 -12.2080 -12.2017 -11.8217 -11.8186 -11.6595 -11.1921 -11.1903
   -10.3928 -10.3685 -10.1186 -10.1158  -9.5898  -9.5889  -8.8374  -8.8269
    -8.8232  -8.7666  -8.7632  -8.5973  -8.1980  -8.0534  -8.0152  -7.8303
    -7.8277  -7.4398  -7.4375  -7.2839  -7.2581  -7.2086  -7.2077  -6.9624
    -6.9553  -6.5679  -6.5374  -6.1547  -6.1538  -5.8725  -5.4196  -5.2973
    -5.2742  -5.2010  -4.9133  -4.9008  -4.5085  -4.3581  -4.3400  -3.9803
    -2.8450  -2.0151  -1.9935  -1.8173  -1.6319  -1.5767  -1.4897  -1.4763
    -1.3882  -1.3835  -1.3339  -0.7608   0.6819   0.8468   1.0562   1.2011
     1.2961   1.4815   1.5187   1.5741   1.6086   1.7979

          k = 0.3333 0.0000 0.0000 ( 59267 PWs)   bands (ev):

   -72.8818 -72.8750 -44.4291 -44.3594 -44.2822 -44.2754 -44.2560 -44.2492
   -21.2472 -20.6863 -20.6315 -20.1061 -20.0948 -19.6140 -19.5600 -19.1024
   -18.7144 -18.6711 -18.4620 -18.4497 -18.1911 -18.1092 -18.0629 -17.8497
   -12.4845 -12.2092 -12.2003 -11.8302 -11.8124 -11.6572 -11.2108 -11.1724
   -10.3919 -10.3682 -10.1313 -10.1034  -9.5962  -9.5814  -8.8455  -8.8240
    -8.8154  -8.7889  -8.7424  -8.5982  -8.1998  -8.1025  -7.9657  -7.8293
    -7.8267  -7.4455  -7.4311  -7.2942  -7.2425  -7.2187  -7.1974  -6.9649
    -6.9545  -6.6188  -6.4938  -6.1575  -6.1501  -5.8789  -5.4193  -5.3116
    -5.2493  -5.2013  -4.9214  -4.8953  -4.4996  -4.3850  -4.3259  -3.9788
    -2.8365  -2.0133  -1.9928  -1.8184  -1.6344  -1.5763  -1.4900  -1.4760
    -1.3916  -1.3863  -1.3358  -0.8444   0.8287   0.9901   1.0799   1.2487
     1.3201   1.4973   1.5139   1.5548   1.5877   1.8277

          k =-0.1667-0.4811 0.0000 ( 59291 PWs)   bands (ev):

   -72.8818 -72.8751 -44.4291 -44.3594 -44.2821 -44.2754 -44.2560 -44.2492
   -21.1172 -20.9128 -20.7237 -20.1616 -19.8051 -19.4674 -19.3178 -19.1755
   -19.0152 -18.7795 -18.6424 -18.5451 -18.1501 -18.0901 -17.9230 -17.7248
   -12.3489 -12.1140 -12.0455 -11.9071 -11.6812 -11.6598 -11.5534 -10.9429
   -10.8910 -10.6243 -10.5239  -9.8611  -9.6941  -9.3370  -9.1118  -8.6686
    -8.6236  -8.5540  -8.3898  -8.3678  -8.1624  -8.1235  -8.0636  -8.0511
    -7.6895  -7.6243  -7.4950  -7.4751  -7.3568  -7.1717  -7.0686  -6.8612
    -6.6230  -6.3898  -6.1786  -6.1587  -5.9730  -5.9301  -5.7846  -5.7459
    -5.4524  -5.3979  -5.2101  -5.0425  -4.4459  -4.3486  -4.0899  -3.7681
    -2.8420  -2.0148  -1.9941  -1.8138  -1.6302  -1.5765  -1.4924  -1.4767
    -1.3880  -1.3833  -1.3359  -0.7652   0.5959   0.8330   1.0756   1.1142
     1.2434   1.2725   1.3963   1.8406   1.9296   2.1080

          k = 0.5000-0.0962 0.0000 ( 59291 PWs)   bands (ev):

   -72.8818 -72.8750 -44.4291 -44.3594 -44.2822 -44.2754 -44.2560 -44.2492
   -21.1145 -20.9204 -20.7188 -20.1597 -19.8052 -19.4695 -19.3235 -19.1705
   -19.0162 -18.7806 -18.6318 -18.5513 -18.1375 -18.1070 -17.9201 -17.7244
   -12.3479 -12.1145 -12.0434 -11.9112 -11.6933 -11.6451 -11.5558 -10.9432
   -10.8888 -10.6226 -10.5264  -9.8588  -9.6947  -9.3380  -9.1112  -8.6580
    -8.6243  -8.5519  -8.4007  -8.3921  -8.1603  -8.1036  -8.0768  -8.0392
    -7.6855  -7.6248  -7.4941  -7.4763  -7.3505  -7.1732  -7.0694  -6.8605
    -6.6234  -6.3992  -6.1950  -6.1582  -5.9574  -5.9294  -5.7838  -5.7488
    -5.4534  -5.3985  -5.1866  -5.0570  -4.4236  -4.3770  -4.0866  -3.7674
    -2.8289  -2.0125  -1.9934  -1.8154  -1.6330  -1.5760  -1.4934  -1.4764
    -1.3932  -1.3873  -1.3391  -0.8851   0.7699   0.9923   1.1113   1.1580
     1.3018   1.3171   1.5475   1.7484   1.8312   1.9175

          k =-0.3333-0.3849 0.0000 ( 59291 PWs)   bands (ev):

   -72.8818 -72.8751 -44.4291 -44.3594 -44.2821 -44.2754 -44.2560 -44.2492
   -21.1154 -20.9178 -20.7207 -20.1595 -19.8072 -19.4674 -19.3184 -19.1742
   -19.0192 -18.7788 -18.6333 -18.5504 -18.1402 -18.1038 -17.9203 -17.7246
   -12.3484 -12.1126 -12.0457 -11.9102 -11.6822 -11.6575 -11.5547 -10.9431
   -10.8884 -10.6219 -10.5273  -9.8596  -9.6948  -9.3374  -9.1121  -8.6614
    -8.6229  -8.5540  -8.3920  -8.3867  -8.1619  -8.1112  -8.0636  -8.0536
    -7.6858  -7.6232  -7.5008  -7.4701  -7.3492  -7.1733  -7.0700  -6.8688
    -6.6214  -6.3909  -6.1793  -6.1604  -5.9701  -5.9283  -5.7840  -5.7576
    -5.4533  -5.3931  -5.1873  -5.0576  -4.4262  -4.3743  -4.0859  -3.7678
    -2.8332  -2.0134  -1.9938  -1.8148  -1.6317  -1.5762  -1.4928  -1.4767
    -1.3914  -1.3859  -1.3380  -0.8485   0.7081   0.9547   1.1037   1.1499
     1.2323   1.3801   1.4252   1.8011   1.8982   1.9159

          k = 0.5000 0.0962 0.0000 ( 59291 PWs)   bands (ev):

   -72.8818 -72.8750 -44.4291 -44.3594 -44.2822 -44.2754 -44.2560 -44.2492
   -21.1145 -20.9204 -20.7188 -20.1597 -19.8052 -19.4695 -19.3235 -19.1705
   -19.0162 -18.7806 -18.6318 -18.5513 -18.1375 -18.1070 -17.9201 -17.7244
   -12.3479 -12.1145 -12.0434 -11.9112 -11.6933 -11.6451 -11.5558 -10.9432
   -10.8888 -10.6226 -10.5264  -9.8588  -9.6948  -9.3380  -9.1112  -8.6580
    -8.6243  -8.5519  -8.4007  -8.3921  -8.1604  -8.1036  -8.0767  -8.0392
    -7.6856  -7.6247  -7.4941  -7.4764  -7.3505  -7.1732  -7.0694  -6.8605
    -6.6233  -6.3992  -6.1950  -6.1581  -5.9574  -5.9293  -5.7839  -5.7488
    -5.4535  -5.3985  -5.1866  -5.0570  -4.4236  -4.3770  -4.0866  -3.7674
    -2.8289  -2.0125  -1.9934  -1.8154  -1.6330  -1.5759  -1.4934  -1.4764
    -1.3932  -1.3873  -1.3391  -0.8851   0.7699   0.9923   1.1113   1.1580
     1.3018   1.3171   1.5475   1.7484   1.8312   1.9175

          k =-0.3333 0.3849 0.0000 ( 59291 PWs)   bands (ev):

   -72.8818 -72.8751 -44.4291 -44.3594 -44.2821 -44.2754 -44.2560 -44.2492
   -21.1154 -20.9178 -20.7207 -20.1595 -19.8072 -19.4674 -19.3184 -19.1742
   -19.0192 -18.7788 -18.6333 -18.5504 -18.1402 -18.1038 -17.9203 -17.7246
   -12.3484 -12.1126 -12.0457 -11.9102 -11.6822 -11.6575 -11.5547 -10.9431
   -10.8884 -10.6219 -10.5273  -9.8596  -9.6948  -9.3374  -9.1121  -8.6614
    -8.6230  -8.5540  -8.3920  -8.3867  -8.1619  -8.1112  -8.0636  -8.0536
    -7.6857  -7.6232  -7.5008  -7.4700  -7.3492  -7.1732  -7.0701  -6.8688
    -6.6214  -6.3908  -6.1793  -6.1605  -5.9701  -5.9284  -5.7839  -5.7576
    -5.4532  -5.3931  -5.1873  -5.0576  -4.4262  -4.3743  -4.0859  -3.7677
    -2.8332  -2.0134  -1.9938  -1.8148  -1.6317  -1.5762  -1.4928  -1.4767
    -1.3914  -1.3859  -1.3380  -0.8485   0.7081   0.9547   1.1037   1.1499
     1.2323   1.3801   1.4252   1.8011   1.8982   1.9158

          k =-0.1667-0.0962 0.0000 ( 59226 PWs)   bands (ev):

   -72.8818 -72.8750 -44.4291 -44.3594 -44.2822 -44.2754 -44.2560 -44.2492
   -21.3140 -20.5364 -20.3478 -20.3381 -19.9908 -19.9800 -19.8066 -18.7319
   -18.7214 -18.3768 -18.3684 -18.3556 -18.2708 -18.2620 -18.0795 -18.0710
   -12.5089 -12.5023 -12.4088 -11.5829 -11.5761 -11.4281 -11.4206 -10.9274
   -10.9241  -9.9307  -9.9264  -9.6765  -9.3757  -9.3731  -9.2313  -9.2287
    -9.0431  -9.0411  -8.9242  -8.3251  -8.3218  -7.9025  -7.9001  -7.8815
    -7.8459  -7.7713  -7.6115  -7.5810  -7.1378  -7.0904  -6.9602  -6.8894
    -6.8858  -6.8517  -6.5329  -6.5284  -6.2585  -5.3539  -5.3149  -5.1441
    -5.0663  -4.8100  -4.8008  -4.7491  -4.6163  -4.6080  -4.3560  -4.3301
    -2.8483  -2.0154  -1.9930  -1.8207  -1.6344  -1.5769  -1.4872  -1.4758
    -1.3882  -1.3839  -1.3322  -0.7563   0.7817   0.8464   1.0074   1.2101
     1.2603   1.3472   1.5825   1.6011   1.7291   1.9359

          k =-0.0000-0.1925 0.0000 ( 59226 PWs)   bands (ev):

   -72.8818 -72.8750 -44.4291 -44.3594 -44.2822 -44.2754 -44.2560 -44.2492
   -21.3142 -20.5314 -20.3546 -20.3402 -19.9880 -19.9753 -19.8102 -18.7314
   -18.7182 -18.3943 -18.3738 -18.3528 -18.2556 -18.2555 -18.0838 -18.0718
   -12.5101 -12.5012 -12.4087 -11.5850 -11.5757 -11.4271 -11.4184 -10.9289
   -10.9244  -9.9297  -9.9273  -9.6770  -9.3762  -9.3714  -9.2308  -9.2296
    -9.0431  -9.0414  -8.9248  -8.3246  -8.3214  -7.9015  -7.8995  -7.8644
    -7.8442  -7.7730  -7.6347  -7.5920  -7.1142  -7.0869  -6.9588  -6.8912
    -6.8857  -6.8636  -6.5333  -6.5271  -6.2591  -5.3451  -5.3154  -5.1444
    -5.0660  -4.8368  -4.8082  -4.7525  -4.5959  -4.5896  -4.3586  -4.3368
    -2.8524  -2.0163  -1.9933  -1.8201  -1.6332  -1.5771  -1.4874  -1.4758
    -1.3866  -1.3825  -1.3314  -0.7075   0.6653   0.8059   0.9967   1.1819
     1.2471   1.3793   1.5774   1.6182   1.6870   2.0010

          k = 0.5000-0.8660 0.0000 ( 59292 PWs)   bands (ev):

   -72.8818 -72.8751 -44.4291 -44.3594 -44.2822 -44.2754 -44.2560 -44.2492
   -21.0500 -21.0478 -20.4722 -20.4628 -19.4301 -19.4196 -19.4149 -19.4086
   -18.9926 -18.9903 -18.3259 -18.3214 -18.3175 -18.3146 -17.7964 -17.7876
   -12.0715 -12.0665 -12.0641 -12.0616 -11.8805 -11.8722 -11.3297 -11.3284
   -10.2369 -10.2311 -10.1371 -10.1336 -10.1304 -10.1260  -8.5901  -8.5510
    -8.5477  -8.5457  -8.5450  -8.5389  -7.8659  -7.8643  -7.8593  -7.8577
    -7.8261  -7.8200  -7.7838  -7.7521  -7.4907  -7.4875  -6.6138  -6.6070
    -6.3631  -6.3313  -6.3069  -6.2929  -6.1906  -6.1886  -5.7121  -5.6974
    -5.5464  -5.5429  -4.7293  -4.7202  -4.6972  -4.6925  -3.8915  -3.8657
    -2.8288  -2.0125  -1.9934  -1.8154  -1.6325  -1.5759  -1.4934  -1.4764
    -1.3932  -1.3872  -1.3391  -0.8853   0.7834   0.9967   1.1205   1.1667
     1.3629   1.5668   1.5842   1.6052   1.7299   1.7456

          k =-1.0000 0.0000 0.0000 ( 59292 PWs)   bands (ev):

   -72.8818 -72.8750 -44.4291 -44.3594 -44.2822 -44.2754 -44.2560 -44.2492
   -21.0750 -21.0201 -20.4769 -20.4629 -19.4249 -19.4218 -19.4204 -19.4002
   -19.0135 -18.9709 -18.3716 -18.3360 -18.2920 -18.2808 -17.7988 -17.7869
   -12.1027 -12.0818 -12.0398 -12.0352 -11.8826 -11.8710 -11.3512 -11.3093
   -10.2426 -10.2400 -10.1330 -10.1318 -10.1251 -10.1240  -8.6323  -8.5753
    -8.5584  -8.5282  -8.5176  -8.4915  -7.8760  -7.8699  -7.8612  -7.8605
    -7.8175  -7.8143  -7.7910  -7.7583  -7.5143  -7.4661  -6.6133  -6.6048
    -6.3575  -6.3286  -6.3095  -6.2791  -6.2091  -6.1730  -5.7383  -5.6781
    -5.5671  -5.5225  -4.7948  -4.7539  -4.6493  -4.6443  -3.8896  -3.8698
    -2.8463  -2.0152  -1.9941  -1.8132  -1.6294  -1.5767  -1.4924  -1.4765
    -1.3863  -1.3820  -1.3349  -0.7174   0.5527   0.7474   1.0686   1.1132
     1.1891   1.5470   1.5759   1.5996   1.6414   1.9393

 ------ SPIN DOWN ----------


          k = 0.1667 0.2887 0.0000 ( 59267 PWs)   bands (ev):

   -68.6821 -68.6742 -40.3599 -40.2767 -40.0991 -40.0910 -40.0525 -40.0443
   -21.2439 -20.6572 -20.6535 -20.1014 -20.0938 -19.5841 -19.5806 -19.0965
   -18.6935 -18.6887 -18.4546 -18.4475 -18.1912 -18.0823 -18.0759 -17.8466
   -12.4825 -12.2053 -12.1996 -11.8194 -11.8165 -11.6574 -11.1897 -11.1878
   -10.3900 -10.3661 -10.1156 -10.1133  -9.5872  -9.5868  -8.8250  -8.8208
    -8.8170  -8.7645  -8.7606  -8.5951  -8.1957  -8.0302  -8.0056  -7.8278
    -7.8256  -7.4364  -7.4347  -7.2644  -7.2458  -7.2066  -7.2051  -6.9598
    -6.9532  -6.5474  -6.5292  -6.1520  -6.1514  -5.8567  -5.4165  -5.2747
    -5.2628  -5.1985  -4.8987  -4.8888  -4.4913  -4.3429  -4.3317  -3.9668
    -1.4396   0.3757   0.8117   1.0139   1.1449   1.1973   1.2733   1.3528
     1.4311   1.4924   1.5544   1.6046   1.6296   1.7466   1.9088   1.9784
     2.0380   2.0860   2.1405   2.1841   2.2865   2.3310

          k = 0.1667-0.4811 0.0000 ( 59291 PWs)   bands (ev):

   -68.6821 -68.6742 -40.3599 -40.2767 -40.0991 -40.0910 -40.0525 -40.0443
   -21.1132 -20.9097 -20.7199 -20.1578 -19.8015 -19.4636 -19.3141 -19.1716
   -19.0114 -18.7759 -18.6373 -18.5420 -18.1445 -18.0879 -17.9189 -17.7207
   -12.3466 -12.1116 -12.0433 -11.9050 -11.6793 -11.6572 -11.5512 -10.9403
   -10.8883 -10.6216 -10.5216  -9.8582  -9.6917  -9.3342  -9.1093  -8.6460
    -8.6212  -8.5511  -8.3877  -8.3563  -8.1600  -8.1069  -8.0613  -8.0487
    -7.6868  -7.6218  -7.4925  -7.4729  -7.3396  -7.1688  -7.0663  -6.8458
    -6.6199  -6.3747  -6.1628  -6.1562  -5.9581  -5.9271  -5.7820  -5.7311
    -5.4498  -5.3836  -5.1884  -5.0335  -4.4254  -4.3423  -4.0764  -3.7549
    -1.4302   0.3632   0.8078   0.9740   1.0474   1.1424   1.2285   1.2880
     1.3788   1.4263   1.5672   1.7299   1.8020   1.8801   1.9095   2.0670
     2.1081   2.1364   2.1592   2.2204   2.3072   2.3294

          k = 0.1667-0.0962 0.0000 ( 59226 PWs)   bands (ev):

   -68.6821 -68.6742 -40.3598 -40.2767 -40.0992 -40.0910 -40.0525 -40.0443
   -21.3104 -20.5323 -20.3441 -20.3351 -19.9863 -19.9767 -19.8034 -18.7271
   -18.7177 -18.3720 -18.3648 -18.3519 -18.2663 -18.2582 -18.0758 -18.0678
   -12.5063 -12.5003 -12.4066 -11.5804 -11.5743 -11.4254 -11.4185 -10.9247
   -10.9218  -9.9281  -9.9242  -9.6738  -9.3733  -9.3707  -9.2283  -9.2260
    -9.0408  -9.0387  -8.9062  -8.3220  -8.3189  -7.8999  -7.8977  -7.8604
    -7.8421  -7.7690  -7.5954  -7.5709  -7.1135  -7.0799  -6.9576  -6.8868
    -6.8837  -6.8415  -6.5303  -6.5262  -6.2560  -5.3309  -5.3034  -5.1414
    -5.0635  -4.7917  -4.7847  -4.7378  -4.6025  -4.5951  -4.3406  -4.3210
    -1.4491   0.3900   0.8175   1.0063   1.1072   1.1670   1.2137   1.3308
     1.4722   1.5359   1.6004   1.6941   1.7825   1.8623   1.8939   1.9384
     1.9813   2.0572   2.1198   2.1338   2.2422   2.3021

          k =-0.5000-0.8660 0.0000 ( 59292 PWs)   bands (ev):

   -68.6821 -68.6742 -40.3599 -40.2767 -40.0992 -40.0910 -40.0525 -40.0443
   -21.0466 -21.0438 -20.4684 -20.4597 -19.4248 -19.4157 -19.4116 -19.4055
   -18.9893 -18.9863 -18.3203 -18.3184 -18.3158 -18.3089 -17.7921 -17.7841
   -12.0677 -12.0649 -12.0627 -12.0588 -11.8781 -11.8706 -11.3274 -11.3259
   -10.2341 -10.2291 -10.1339 -10.1309 -10.1278 -10.1239  -8.5630  -8.5453
    -8.5449  -8.5437  -8.5422  -8.5328  -7.8632  -7.8616  -7.8573  -7.8556
    -7.8224  -7.8167  -7.7669  -7.7416  -7.4890  -7.4847  -6.6108  -6.6049
    -6.3338  -6.3127  -6.2964  -6.2841  -6.1883  -6.1854  -5.6946  -5.6882
    -5.5441  -5.5399  -4.7079  -4.6981  -4.6893  -4.6865  -3.8752  -3.8559
    -1.4059   0.1241   0.8126   1.0632   1.0762   1.1636   1.2945   1.4262
     1.5154   1.5404   1.5912   1.7039   1.7602   1.8769   1.9214   1.9563
     1.9704   2.0513   2.1552   2.2145   2.3091   2.3367

          k =-0.1667 0.2887 0.0000 ( 59267 PWs)   bands (ev):

   -68.6821 -68.6742 -40.3599 -40.2767 -40.0991 -40.0910 -40.0525 -40.0443
   -21.2439 -20.6572 -20.6535 -20.1014 -20.0938 -19.5841 -19.5806 -19.0965
   -18.6935 -18.6886 -18.4546 -18.4475 -18.1912 -18.0823 -18.0759 -17.8466
   -12.4825 -12.2053 -12.1996 -11.8194 -11.8166 -11.6574 -11.1897 -11.1878
   -10.3900 -10.3661 -10.1157 -10.1133  -9.5872  -9.5867  -8.8250  -8.8208
    -8.8170  -8.7645  -8.7607  -8.5950  -8.1958  -8.0302  -8.0056  -7.8278
    -7.8255  -7.4364  -7.4348  -7.2644  -7.2458  -7.2065  -7.2050  -6.9599
    -6.9532  -6.5474  -6.5292  -6.1521  -6.1513  -5.8567  -5.4166  -5.2747
    -5.2628  -5.1984  -4.8987  -4.8888  -4.4914  -4.3429  -4.3317  -3.9668
    -1.4396   0.3757   0.8117   1.0139   1.1449   1.1973   1.2733   1.3528
     1.4311   1.4924   1.5543   1.6046   1.6296   1.7466   1.9088   1.9784
     2.0380   2.0860   2.1405   2.1840   2.2865   2.3309

          k = 0.3333 0.0000 0.0000 ( 59267 PWs)   bands (ev):

   -68.6821 -68.6742 -40.3599 -40.2767 -40.0992 -40.0910 -40.0525 -40.0443
   -21.2435 -20.6809 -20.6297 -20.1025 -20.0913 -19.6084 -19.5581 -19.0983
   -18.7084 -18.6694 -18.4578 -18.4459 -18.1871 -18.1030 -18.0611 -17.8459
   -12.4822 -12.2069 -12.1979 -11.8277 -11.8104 -11.6553 -11.2072 -11.1709
   -10.3893 -10.3658 -10.1277 -10.1017  -9.5934  -9.5795  -8.8321  -8.8205
    -8.8082  -8.7853  -8.7412  -8.5958  -8.1973  -8.0737  -7.9618  -7.8269
    -7.8246  -7.4418  -7.4288  -7.2730  -7.2332  -7.2157  -7.1958  -6.9622
    -6.9521  -6.5920  -6.4897  -6.1547  -6.1480  -5.8613  -5.4164  -5.2912
    -5.2388  -5.1987  -4.9051  -4.8843  -4.4848  -4.3674  -4.3163  -3.9658
    -1.4242   0.2053   0.8612   1.0082   1.1213   1.1813   1.2919   1.4422
     1.4759   1.4893   1.5534   1.7154   1.7717   1.8486   1.8930   1.9422
     2.0109   2.0833   2.1262   2.1826   2.2915   2.3176

          k =-0.1667-0.4811 0.0000 ( 59291 PWs)   bands (ev):

   -68.6821 -68.6742 -40.3599 -40.2767 -40.0991 -40.0910 -40.0525 -40.0443
   -21.1132 -20.9097 -20.7199 -20.1578 -19.8015 -19.4636 -19.3141 -19.1716
   -19.0114 -18.7759 -18.6373 -18.5420 -18.1445 -18.0879 -17.9189 -17.7207
   -12.3466 -12.1116 -12.0433 -11.9050 -11.6792 -11.6572 -11.5512 -10.9403
   -10.8883 -10.6216 -10.5215  -9.8582  -9.6917  -9.3342  -9.1094  -8.6460
    -8.6211  -8.5511  -8.3876  -8.3563  -8.1599  -8.1069  -8.0614  -8.0488
    -7.6868  -7.6219  -7.4925  -7.4729  -7.3396  -7.1688  -7.0663  -6.8458
    -6.6199  -6.3747  -6.1628  -6.1562  -5.9581  -5.9270  -5.7819  -5.7311
    -5.4499  -5.3836  -5.1884  -5.0335  -4.4253  -4.3423  -4.0764  -3.7549
    -1.4302   0.3632   0.8078   0.9740   1.0474   1.1424   1.2285   1.2880
     1.3788   1.4263   1.5672   1.7299   1.8020   1.8801   1.9095   2.0670
     2.1082   2.1364   2.1592   2.2204   2.3072   2.3294

          k = 0.5000-0.0962 0.0000 ( 59291 PWs)   bands (ev):

   -68.6821 -68.6742 -40.3599 -40.2767 -40.0991 -40.0910 -40.0525 -40.0443
   -21.1108 -20.9164 -20.7157 -20.1562 -19.8015 -19.4655 -19.3191 -19.1673
   -19.0123 -18.7768 -18.6282 -18.5473 -18.1336 -18.1024 -17.9166 -17.7204
   -12.3456 -12.1122 -12.0414 -11.9087 -11.6905 -11.6436 -11.5533 -10.9406
   -10.8863 -10.6201 -10.5239  -9.8561  -9.6923  -9.3351  -9.1088  -8.6386
    -8.6216  -8.5492  -8.3919  -8.3778  -8.1582  -8.0928  -8.0733  -8.0380
    -7.6833  -7.6223  -7.4917  -7.4741  -7.3351  -7.1701  -7.0670  -6.8454
    -6.6202  -6.3805  -6.1750  -6.1557  -5.9473  -5.9264  -5.7813  -5.7331
    -5.4509  -5.3844  -5.1714  -5.0439  -4.4076  -4.3643  -4.0740  -3.7545
    -1.4060   0.1258   0.8135   1.0352   1.0661   1.1491   1.2202   1.2941
     1.4275   1.5995   1.6882   1.8017   1.8600   1.9205   1.9495   1.9916
     2.0275   2.1058   2.1981   2.2347   2.2956   2.3460

          k =-0.3333-0.3849 0.0000 ( 59291 PWs)   bands (ev):

   -68.6821 -68.6742 -40.3599 -40.2767 -40.0991 -40.0910 -40.0525 -40.0443
   -21.1116 -20.9140 -20.7173 -20.1560 -19.8033 -19.4637 -19.3146 -19.1704
   -19.0149 -18.7752 -18.6294 -18.5466 -18.1358 -18.0998 -17.9167 -17.7206
   -12.3461 -12.1103 -12.0435 -11.9077 -11.6802 -11.6552 -11.5523 -10.9405
   -10.8860 -10.6195 -10.5246  -9.8568  -9.6924  -9.3346  -9.1096  -8.6408
    -8.6205  -8.5510  -8.3890  -8.3702  -8.1596  -8.0982  -8.0613  -8.0511
    -7.6835  -7.6209  -7.4977  -7.4685  -7.3342  -7.1702  -7.0675  -6.8510
    -6.6184  -6.3754  -6.1637  -6.1574  -5.9558  -5.9255  -5.7814  -5.7396
    -5.4507  -5.3806  -5.1723  -5.0440  -4.4098  -4.3620  -4.0736  -3.7547
    -1.4143   0.1924   0.7998   1.0281   1.0602   1.1696   1.2165   1.3038
     1.4104   1.5209   1.6847   1.7765   1.8450   1.9064   1.9452   2.0031
     2.0597   2.0816   2.1420   2.2157   2.3090   2.3350

          k = 0.5000 0.0962 0.0000 ( 59291 PWs)   bands (ev):

   -68.6821 -68.6742 -40.3599 -40.2767 -40.0991 -40.0910 -40.0525 -40.0443
   -21.1108 -20.9164 -20.7157 -20.1562 -19.8015 -19.4655 -19.3191 -19.1673
   -19.0123 -18.7768 -18.6282 -18.5473 -18.1336 -18.1024 -17.9165 -17.7204
   -12.3456 -12.1122 -12.0414 -11.9087 -11.6905 -11.6436 -11.5533 -10.9406
   -10.8863 -10.6201 -10.5239  -9.8561  -9.6924  -9.3351  -9.1088  -8.6386
    -8.6216  -8.5493  -8.3919  -8.3778  -8.1582  -8.0928  -8.0733  -8.0379
    -7.6833  -7.6223  -7.4917  -7.4741  -7.3351  -7.1702  -7.0669  -6.8454
    -6.6201  -6.3805  -6.1750  -6.1557  -5.9473  -5.9264  -5.7814  -5.7331
    -5.4509  -5.3844  -5.1714  -5.0438  -4.4076  -4.3643  -4.0740  -3.7545
    -1.4060   0.1258   0.8135   1.0352   1.0661   1.1491   1.2202   1.2941
     1.4275   1.5995   1.6881   1.8017   1.8600   1.9205   1.9496   1.9916
     2.0274   2.1058   2.1980   2.2347   2.2957   2.3460

          k =-0.3333 0.3849 0.0000 ( 59291 PWs)   bands (ev):

   -68.6821 -68.6742 -40.3599 -40.2767 -40.0991 -40.0910 -40.0525 -40.0443
   -21.1116 -20.9140 -20.7173 -20.1560 -19.8033 -19.4637 -19.3146 -19.1704
   -19.0149 -18.7752 -18.6294 -18.5466 -18.1358 -18.0998 -17.9167 -17.7206
   -12.3461 -12.1103 -12.0436 -11.9077 -11.6803 -11.6552 -11.5523 -10.9405
   -10.8859 -10.6195 -10.5246  -9.8568  -9.6924  -9.3346  -9.1096  -8.6408
    -8.6206  -8.5509  -8.3890  -8.3702  -8.1596  -8.0982  -8.0613  -8.0510
    -7.6835  -7.6209  -7.4977  -7.4685  -7.3342  -7.1702  -7.0675  -6.8510
    -6.6185  -6.3754  -6.1637  -6.1574  -5.9558  -5.9256  -5.7814  -5.7396
    -5.4506  -5.3806  -5.1723  -5.0440  -4.4098  -4.3620  -4.0736  -3.7547
    -1.4143   0.1924   0.7998   1.0281   1.0602   1.1696   1.2166   1.3038
     1.4104   1.5209   1.6847   1.7765   1.8450   1.9064   1.9452   2.0030
     2.0597   2.0817   2.1420   2.2156   2.3089   2.3350

          k =-0.1667-0.0962 0.0000 ( 59226 PWs)   bands (ev):

   -68.6821 -68.6742 -40.3598 -40.2767 -40.0992 -40.0910 -40.0525 -40.0443
   -21.3104 -20.5323 -20.3441 -20.3351 -19.9863 -19.9767 -19.8034 -18.7271
   -18.7177 -18.3720 -18.3648 -18.3519 -18.2663 -18.2582 -18.0758 -18.0678
   -12.5063 -12.5003 -12.4066 -11.5804 -11.5743 -11.4254 -11.4185 -10.9247
   -10.9218  -9.9281  -9.9243  -9.6737  -9.3733  -9.3707  -9.2283  -9.2260
    -9.0408  -9.0388  -8.9062  -8.3220  -8.3190  -7.8998  -7.8976  -7.8604
    -7.8420  -7.7690  -7.5954  -7.5709  -7.1135  -7.0799  -6.9577  -6.8868
    -6.8837  -6.8415  -6.5302  -6.5261  -6.2560  -5.3309  -5.3034  -5.1413
    -5.0636  -4.7917  -4.7847  -4.7378  -4.6025  -4.5951  -4.3406  -4.3210
    -1.4491   0.3900   0.8175   1.0063   1.1072   1.1670   1.2137   1.3308
     1.4723   1.5359   1.6004   1.6941   1.7825   1.8623   1.8939   1.9384
     1.9814   2.0572   2.1199   2.1338   2.2421   2.3021

          k =-0.0000-0.1925 0.0000 ( 59226 PWs)   bands (ev):

   -68.6821 -68.6742 -40.3598 -40.2767 -40.0992 -40.0910 -40.0525 -40.0443
   -21.3105 -20.5279 -20.3501 -20.3369 -19.9841 -19.9723 -19.8065 -18.7268
   -18.7149 -18.3879 -18.3686 -18.3494 -18.2536 -18.2526 -18.0796 -18.0683
   -12.5079 -12.4988 -12.4064 -11.5824 -11.5737 -11.4248 -11.4162 -10.9261
   -10.9221  -9.9274  -9.9249  -9.6741  -9.3735  -9.3694  -9.2281  -9.2267
    -9.0407  -9.0391  -8.9066  -8.3217  -8.3185  -7.8991  -7.8973  -7.8508
    -7.8381  -7.7705  -7.6107  -7.5798  -7.0983  -7.0757  -6.9564  -6.8886
    -6.8834  -6.8501  -6.5308  -6.5250  -6.2565  -5.3256  -5.3026  -5.1416
    -5.0633  -4.8121  -4.7903  -4.7388  -4.5884  -4.5819  -4.3434  -4.3246
    -1.4563   0.5245   0.7773   0.9883   1.1229   1.1529   1.2108   1.3090
     1.4514   1.4788   1.5231   1.6273   1.7312   1.8465   1.9283   1.9478
     2.0553   2.0734   2.1547   2.1685   2.1827   2.3104

          k = 0.5000-0.8660 0.0000 ( 59292 PWs)   bands (ev):

   -68.6821 -68.6742 -40.3599 -40.2767 -40.0992 -40.0910 -40.0525 -40.0443
   -21.0466 -21.0438 -20.4684 -20.4597 -19.4248 -19.4157 -19.4116 -19.4055
   -18.9893 -18.9862 -18.3203 -18.3185 -18.3159 -18.3089 -17.7921 -17.7841
   -12.0677 -12.0650 -12.0628 -12.0587 -11.8781 -11.8706 -11.3274 -11.3259
   -10.2341 -10.2291 -10.1339 -10.1309 -10.1278 -10.1239  -8.5630  -8.5453
    -8.5449  -8.5436  -8.5421  -8.5328  -7.8632  -7.8616  -7.8573  -7.8556
    -7.8224  -7.8168  -7.7669  -7.7416  -7.4890  -7.4847  -6.6107  -6.6048
    -6.3338  -6.3127  -6.2964  -6.2841  -6.1883  -6.1853  -5.6947  -5.6883
    -5.5442  -5.5400  -4.7079  -4.6981  -4.6893  -4.6865  -3.8752  -3.8559
    -1.4059   0.1241   0.8126   1.0632   1.0762   1.1636   1.2945   1.4262
     1.5154   1.5403   1.5912   1.7039   1.7601   1.8769   1.9215   1.9563
     1.9704   2.0514   2.1552   2.2145   2.3093   2.3367

          k =-1.0000 0.0000 0.0000 ( 59292 PWs)   bands (ev):

   -68.6821 -68.6742 -40.3599 -40.2767 -40.0992 -40.0910 -40.0525 -40.0443
   -21.0697 -21.0183 -20.4726 -20.4596 -19.4210 -19.4172 -19.4167 -19.3975
   -19.0077 -18.9692 -18.3639 -18.3296 -18.2907 -18.2801 -17.7943 -17.7832
   -12.0991 -12.0786 -12.0385 -12.0344 -11.8802 -11.8692 -11.3475 -11.3077
   -10.2397 -10.2368 -10.1302 -10.1295 -10.1225 -10.1223  -8.6024  -8.5710
    -8.5554  -8.5270  -8.5168  -8.4877  -7.8726  -7.8667  -7.8581  -7.8581
    -7.8123  -7.8116  -7.7733  -7.7465  -7.5107  -7.4649  -6.6106  -6.6027
    -6.3325  -6.3115  -6.2977  -6.2716  -6.2051  -6.1710  -5.7197  -5.6676
    -5.5630  -5.5214  -4.7647  -4.7311  -4.6466  -4.6421  -3.8749  -3.8577
    -1.4378   0.4845   0.8347   0.9514   1.0418   1.1419   1.2334   1.2732
     1.3704   1.4927   1.5846   1.6418   1.6710   1.8030   1.8732   1.8931
     2.1287   2.1331   2.1521   2.1799   2.3180   2.3331

     the Fermi energy is    -1.1803 ev

!    total energy              =   -1133.82784323 Ry

     total all-electron energy =     -6753.503546 Ry
     estimated scf accuracy    <       0.00000001 Ry
     smearing contrib. (-TS)   =      -0.00000000 Ry
     internal energy E=F+TS    =   -1133.82784323 Ry

     The total energy is F=E-TS. E is the sum of the following terms:
     one-electron contribution =   -3951.22875800 Ry
     hartree contribution      =    2003.80240906 Ry
     xc contribution           =    -186.01711849 Ry
     ewald contribution        =    1358.99279959 Ry
     DFT-D3 Dispersion         =      -0.13485617 Ry
     one-center paw contrib.   =    -359.24231922 Ry

     total magnetization       =    10.00 Bohr mag/cell
     absolute magnetization    =    10.01 Bohr mag/cell

     convergence has been achieved in  15 iterations

     Writing output data file ./mytmp/Crdimer0.1435-0.5.save/
 
     init_run     :     18.91s CPU     20.16s WALL (       1 calls)
     electrons    :    532.96s CPU    577.23s WALL (       1 calls)

     Called by init_run:
     wfcinit      :     13.88s CPU     14.60s WALL (       1 calls)
     potinit      :      1.53s CPU      1.61s WALL (       1 calls)
     hinit0       :      1.50s CPU      1.58s WALL (       1 calls)

     Called by electrons:
     c_bands      :    419.80s CPU    445.61s WALL (      15 calls)
     sum_band     :     83.70s CPU     94.63s WALL (      15 calls)
     v_of_rho     :      5.09s CPU      5.51s WALL (      16 calls)
     newd         :     15.95s CPU     23.19s WALL (      16 calls)
     PAW_pot      :      7.87s CPU      7.98s WALL (      16 calls)
     mix_rho      :      1.07s CPU      1.09s WALL (      15 calls)

     Called by c_bands:
     init_us_2    :      5.39s CPU      5.42s WALL (     930 calls)
     cegterg      :    406.55s CPU    432.30s WALL (     450 calls)

     Called by *egterg:
     cdiaghg      :     27.50s CPU     43.63s WALL (    2988 calls)
     h_psi        :    259.76s CPU    268.75s WALL (    3018 calls)
     s_psi        :     28.95s CPU     29.00s WALL (    3018 calls)
     g_psi        :      0.73s CPU      0.76s WALL (    2538 calls)

     Called by h_psi:
     h_psi:calbec :     29.96s CPU     30.55s WALL (    3018 calls)
     vloc_psi     :    198.30s CPU    206.56s WALL (    3018 calls)
     add_vuspsi   :     29.29s CPU     29.41s WALL (    3018 calls)

     General routines
     calbec       :     39.97s CPU     40.76s WALL (    3468 calls)
     fft          :      7.50s CPU     11.16s WALL (     394 calls)
     ffts         :      0.12s CPU      0.14s WALL (      62 calls)
     fftw         :    203.72s CPU    212.20s WALL (  266186 calls)
     interpolate  :      0.44s CPU      0.47s WALL (      32 calls)
 
     Parallel routines
     fft_scatt_xy :     33.06s CPU     34.24s WALL (  266642 calls)
     fft_scatt_yz :     82.55s CPU     90.07s WALL (  266642 calls)
 
     PWSCF        :   9m13.81s CPU  10m 1.78s WALL

 
   This run was terminated on:  16:44:37   2Apr2021            

=------------------------------------------------------------------------------=
   JOB DONE.
=------------------------------------------------------------------------------=
