
     Program PWSCF v.6.7MaX starts on  2Apr2021 at 14:40:54 

     This program is part of the open-source Quantum ESPRESSO suite
     for quantum simulation of materials; please cite
         "P. Giannozzi et al., J. Phys.:Condens. Matter 21 395502 (2009);
         "P. Giannozzi et al., J. Phys.:Condens. Matter 29 465901 (2017);
          URL http://www.quantum-espresso.org", 
     in publications or presentations arising from this work. More details at
     http://www.quantum-espresso.org/quote

     Parallel version (MPI), running on    48 processors

     MPI processes distributed on     1 nodes
     R & G space division:  proc/nbgrp/npool/nimage =      48
     Reading input from Crdimer0.143-0.0.scf.in

     Current dimensions of program PWSCF are:
     Max number of different atomic species (ntypx) = 10
     Max number of k-points (npk) =  40000
     Max angular momentum in pseudopotentials (lmaxx) =  3
     file N.pbe-n-kjpaw_psl.1.0.0.UPF: wavefunction(s)  2S renormalized
     file Cr.pbe-spn-kjpaw_psl.1.0.0.UPF: wavefunction(s)  3S 3P 3D renormalized
     file Cr.pbe-spn-kjpaw_psl.1.0.0.UPF: wavefunction(s)  3S 3P 3D renormalized

     --------------------------------------------
     Parameters for DFT-D3 Dispersion Correction:
     --------------------------------------------
       Reference C6 values for interpolation: 

         atom   Coordination number   C6
         B          0.000           214.36
         B          0.971           150.74
         B          1.944           106.23
         B          2.913            62.89
         B          4.586            56.06
         N          0.000            50.54
         N          0.994            44.25
         N          2.014            39.35
         N          2.990            31.16
         Cr1        0.000          1381.48
         Cr1        1.827           571.38
         Cr1       10.619           306.69
         Cr2        0.000          1381.48
         Cr2        1.827           571.38
         Cr2       10.619           306.69

       Values used:

         atom   Coordination number  R0_AB[au]  C6      C8
         B          3.336            3.039     62.89   2505.99
         B          3.336            3.039     62.89   2505.99
         B          3.365            3.039     62.87   2505.22
         B          3.336            3.039     62.89   2505.99
         B          3.340            3.039     62.89   2505.89
         B          3.340            3.039     62.89   2505.89
         N          3.134            2.478     31.22    688.70
         N          3.134            2.478     31.22    688.70
         N          3.158            2.478     31.21    688.49
         N          3.136            2.478     31.22    688.68
         N          3.135            2.478     31.22    688.69
         N          3.134            2.478     31.22    688.69
         N          3.135            2.478     31.22    688.69
         N          3.134            2.478     31.22    688.69
         N          3.142            2.478     31.21    688.63
         B          3.335            3.039     62.89   2506.01
         B          3.336            3.039     62.89   2505.99
         B          3.340            3.039     62.89   2505.89
         B          3.340            3.039     62.89   2505.89
         B          3.336            3.039     62.89   2505.99
         B          3.335            3.039     62.89   2506.01
         N          3.135            2.478     31.22    688.69
         B          3.335            3.039     62.89   2506.01
         B          3.335            3.039     62.89   2506.01
         B          3.359            3.039     62.88   2505.37
         N          3.134            2.478     31.22    688.69
         N          3.134            2.478     31.22    688.70
         N          3.140            2.478     31.22    688.64
         N          3.140            2.478     31.22    688.64
         N          3.158            2.478     31.21    688.49
         N          3.136            2.478     31.22    688.68
         B          3.359            3.039     62.88   2505.37
         Cr1        0.690            3.252   1343.27 123968.43
         Cr2        0.690            3.252   1343.27 123968.43

         Molecular C6 ( Ry / a.u.^6 ) =     78726.84


     Subspace diagonalization in iterative solution of the eigenvalue problem:
     one sub-group per band group will be used
     scalapack distributed-memory algorithm (size of sub-group:  6*  6 procs)

 
     Parallelization info
     --------------------
     sticks:   dense  smooth     PW     G-vecs:    dense   smooth      PW
     Min         235      98     26                36277     9874    1408
     Max         236      99     27                36282     9883    1425
     Sum       11311    4741   1285              1741401   474235   68095
 


     bravais-lattice index     =            4
     lattice parameter (alat)  =      18.9275  a.u.
     unit-cell volume          =   10553.3021 (a.u.)^3
     number of atoms/cell      =           34
     number of atomic types    =            4
     number of electrons       =       156.00
     number of Kohn-Sham states=           94
     kinetic-energy cutoff     =      48.0000  Ry
     charge density cutoff     =     457.0000  Ry
     scf convergence threshold =      1.0E-07
     mixing beta               =       0.5000
     number of iterations used =            8  plain     mixing
     Exchange-correlation= SLA  PW   PBX  PBC
                           (   1   4   3   4   0   0   0)

     celldm(1)=  18.927497  celldm(2)=   0.000000  celldm(3)=   1.797125
     celldm(4)=   0.000000  celldm(5)=   0.000000  celldm(6)=   0.000000

     crystal axes: (cart. coord. in units of alat)
               a(1) = (   1.000000   0.000000   0.000000 )  
               a(2) = (  -0.500000   0.866025   0.000000 )  
               a(3) = (   0.000000   0.000000   1.797125 )  

     reciprocal axes: (cart. coord. in units 2 pi/alat)
               b(1) = (  1.000000  0.577350  0.000000 )  
               b(2) = (  0.000000  1.154701  0.000000 )  
               b(3) = (  0.000000  0.000000  0.556444 )  


     PseudoPot. # 1 for B  read from file:
     /home/sf05/q-e-qe-6.7MaX-Release/pseudo/B.pbe-n-kjpaw_psl.1.0.0.UPF
     MD5 check sum: d9c678ba5d3b2fd7b74e61139c9288d8
     Pseudo is Projector augmented-wave + core cor, Zval =  3.0
     Generated using "atomic" code by A. Dal Corso  v.5.1.2
     Shape of augmentation charge: PSQ
     Using radial grid of 1059 points,  4 beta functions with: 
                l(1) =   0
                l(2) =   0
                l(3) =   1
                l(4) =   1
     Q(r) pseudized with 0 coefficients 


     PseudoPot. # 2 for N  read from file:
     /home/sf05/q-e-qe-6.7MaX-Release/pseudo/N.pbe-n-kjpaw_psl.1.0.0.UPF
     MD5 check sum: e0e4e94a9c4025c5b51bd7d8793849bd
     Pseudo is Projector augmented-wave + core cor, Zval =  5.0
     Generated using "atomic" code by A. Dal Corso  v.5.1.2
     Shape of augmentation charge: PSQ
     Using radial grid of 1085 points,  4 beta functions with: 
                l(1) =   0
                l(2) =   0
                l(3) =   1
                l(4) =   1
     Q(r) pseudized with 0 coefficients 


     PseudoPot. # 3 for Cr read from file:
     /home/sf05/q-e-qe-6.7MaX-Release/pseudo/Cr.pbe-spn-kjpaw_psl.1.0.0.UPF
     MD5 check sum: 198f1a2427a48552563eee314eba32ba
     Pseudo is Projector augmented-wave + core cor, Zval = 14.0
     Generated using &quot;atomic&quot; code by A. Dal Corso  v.6.3
     Shape of augmentation charge: PSQ
     Using radial grid of 1183 points,  6 beta functions with: 
                l(1) =   0
                l(2) =   0
                l(3) =   1
                l(4) =   1
                l(5) =   2
                l(6) =   2
     Q(r) pseudized with 0 coefficients 


     PseudoPot. # 4 for Cr read from file:
     /home/sf05/q-e-qe-6.7MaX-Release/pseudo/Cr.pbe-spn-kjpaw_psl.1.0.0.UPF
     MD5 check sum: 198f1a2427a48552563eee314eba32ba
     Pseudo is Projector augmented-wave + core cor, Zval = 14.0
     Generated using &quot;atomic&quot; code by A. Dal Corso  v.6.3
     Shape of augmentation charge: PSQ
     Using radial grid of 1183 points,  6 beta functions with: 
                l(1) =   0
                l(2) =   0
                l(3) =   1
                l(4) =   1
                l(5) =   2
                l(6) =   2
     Q(r) pseudized with 0 coefficients 


     atomic species   valence    mass     pseudopotential
        B              3.00    10.81100     B ( 1.00)
        N              5.00    14.00674     N ( 1.00)
        Cr1           14.00    51.99610     Cr( 1.00)
        Cr2           14.00    51.99610     Cr( 1.00)

     Starting magnetic structure 
     atomic species   magnetization
        B            0.000
        N            0.000
        Cr1          1.000
        Cr2          1.000

     No symmetry found



   Cartesian axes

     site n.     atom                  positions (alat units)
         1           B   tau(   1) = (  -0.1250000   0.2165064   0.8985623  )
         2           B   tau(   2) = (   0.3750000   0.6495191   0.8985623  )
         3           B   tau(   3) = (   0.2500000   0.0000000   0.8985623  )
         4           B   tau(   4) = (   0.7500000   0.0000000   0.8985623  )
         5           B   tau(   5) = (   0.1250000   0.2165064   0.8985623  )
         6           B   tau(   6) = (  -0.3750000   0.6495191   0.8985623  )
         7           N   tau(   7) = (   0.7500005   0.2886748   0.8985623  )
         8           N   tau(   8) = (   0.3750005   0.5051812   0.8985623  )
         9           N   tau(   9) = (   0.3750005   0.0721685   0.8985623  )
        10           N   tau(  10) = (   0.6250005   0.0721685   0.8985623  )
        11           N   tau(  11) = (   0.2500005   0.2886748   0.8985623  )
        12           N   tau(  12) = (   0.6250005   0.5051812   0.8985623  )
        13           N   tau(  13) = (   0.0000005   0.2886748   0.8985623  )
        14           N   tau(  14) = (   0.2500005   0.7216875   0.8985623  )
        15           N   tau(  15) = (  -0.2499995   0.7216875   0.8985623  )
        16           B   tau(  16) = (   0.0000000   0.4330127   0.8985623  )
        17           B   tau(  17) = (   0.1250000   0.6495191   0.8985623  )
        18           B   tau(  18) = (  -0.1250000   0.6495191   0.8985623  )
        19           B   tau(  19) = (   0.3750000   0.2165064   0.8985623  )
        20           B   tau(  20) = (   0.6250000   0.2165064   0.8985623  )
        21           B   tau(  21) = (   0.5000000   0.4330127   0.8985623  )
        22           N   tau(  22) = (   0.5000005   0.2886748   0.8985623  )
        23           B   tau(  23) = (  -0.2500000   0.4330127   0.8985623  )
        24           B   tau(  24) = (   0.2500000   0.4330127   0.8985623  )
        25           B   tau(  25) = (   0.5000000   0.0000000   0.8985623  )
        26           N   tau(  26) = (  -0.1249995   0.5051812   0.8985623  )
        27           N   tau(  27) = (   0.1250005   0.5051812   0.8985623  )
        28           N   tau(  28) = (   0.0000005   0.7216875   0.8985623  )
        29           N   tau(  29) = (   0.5000005   0.7216875   0.8985623  )
        30           N   tau(  30) = (   0.1250005   0.0721685   0.8985623  )
        31           N   tau(  31) = (   0.8750005   0.0721685   0.8985623  )
        32           B   tau(  32) = (   0.0000000   0.0000000   0.8985623  )
        33           Cr1 tau(  33) = (   0.3930000   0.0000000   1.2040735  )
        34           Cr2 tau(  34) = (   0.1070000   0.0000000   1.2040735  )

     number of k points=    15  Gaussian smearing, width (Ry)=  0.0000
                       cart. coord. in units 2pi/alat
        k(    1) = (   0.1666667   0.2886751   0.0000000), wk =   0.0740741
        k(    2) = (   0.1666667  -0.4811252   0.0000000), wk =   0.0740741
        k(    3) = (   0.1666667  -0.0962250   0.0000000), wk =   0.0740741
        k(    4) = (  -0.5000000  -0.8660254   0.0000000), wk =   0.0370370
        k(    5) = (  -0.1666667   0.2886751   0.0000000), wk =   0.0740741
        k(    6) = (   0.3333333   0.0000000   0.0000000), wk =   0.0740741
        k(    7) = (  -0.1666667  -0.4811252   0.0000000), wk =   0.0740741
        k(    8) = (   0.5000000  -0.0962250   0.0000000), wk =   0.0740741
        k(    9) = (  -0.3333333  -0.3849002   0.0000000), wk =   0.0740741
        k(   10) = (   0.5000000   0.0962250   0.0000000), wk =   0.0740741
        k(   11) = (  -0.3333333   0.3849002   0.0000000), wk =   0.0740741
        k(   12) = (  -0.1666667  -0.0962250   0.0000000), wk =   0.0740741
        k(   13) = (  -0.0000000  -0.1924501   0.0000000), wk =   0.0740741
        k(   14) = (   0.5000000  -0.8660254   0.0000000), wk =   0.0370370
        k(   15) = (  -1.0000000   0.0000000   0.0000000), wk =   0.0370370

     Dense  grid:  1741401 G-vectors     FFT dimensions: ( 135, 135, 240)

     Smooth grid:   474235 G-vectors     FFT dimensions: (  90,  90, 160)

     Estimated max dynamical RAM per process >     218.62 MB

     Estimated total dynamical RAM >      10.25 GB
     Generating pointlists ...
     new r_m :   0.0595 (alat units)  1.1269 (a.u.) for type    1
     new r_m :   0.0595 (alat units)  1.1269 (a.u.) for type    2
     new r_m :   0.1180 (alat units)  2.2330 (a.u.) for type    3
     new r_m :   0.1180 (alat units)  2.2330 (a.u.) for type    4

     Initial potential from superposition of free atoms

     starting charge  155.99382, renormalised to  156.00000

     negative rho (up, down):  6.708E-03 4.655E-04
     Starting wfcs are  148 randomized atomic wfcs
     Checking if some PAW data can be deallocated... 

     total cpu time spent up to now is       20.1 secs

     Self-consistent Calculation

     iteration #  1     ecut=    48.00 Ry     beta= 0.50
     Davidson diagonalization with overlap
     ethr =  1.00E-02,  avg # of iterations =  2.8

     negative rho (up, down):  4.891E-03 2.909E-03

     total cpu time spent up to now is       64.2 secs

     total energy              =   -1130.73793057 Ry
     estimated scf accuracy    <      11.36694494 Ry

     total magnetization       =    12.00 Bohr mag/cell
     absolute magnetization    =    12.12 Bohr mag/cell

     iteration #  2     ecut=    48.00 Ry     beta= 0.50
     Davidson diagonalization with overlap
     ethr =  7.29E-03,  avg # of iterations =  2.8

     negative rho (up, down):  8.840E-03 8.034E-03

     total cpu time spent up to now is      104.9 secs

     total energy              =   -1132.91663113 Ry
     estimated scf accuracy    <       3.78958468 Ry

     total magnetization       =    10.00 Bohr mag/cell
     absolute magnetization    =    10.07 Bohr mag/cell

     iteration #  3     ecut=    48.00 Ry     beta= 0.50
     Davidson diagonalization with overlap
     ethr =  2.43E-03,  avg # of iterations =  6.9

     negative rho (up, down):  4.084E-03 4.093E-03

     total cpu time spent up to now is      146.3 secs

     total energy              =   -1133.56498699 Ry
     estimated scf accuracy    <       0.84478475 Ry

     total magnetization       =    11.85 Bohr mag/cell
     absolute magnetization    =    11.91 Bohr mag/cell

     iteration #  4     ecut=    48.00 Ry     beta= 0.50
     Davidson diagonalization with overlap
     ethr =  5.42E-04,  avg # of iterations =  6.2

     negative rho (up, down):  6.912E-03 7.596E-03

     total cpu time spent up to now is      185.7 secs

     total energy              =   -1133.78516107 Ry
     estimated scf accuracy    <       0.44253351 Ry

     total magnetization       =    10.00 Bohr mag/cell
     absolute magnetization    =    10.02 Bohr mag/cell

     iteration #  5     ecut=    48.00 Ry     beta= 0.50
     Davidson diagonalization with overlap
     ethr =  2.84E-04,  avg # of iterations =  7.0

     negative rho (up, down):  4.733E-03 5.034E-03

     total cpu time spent up to now is      227.1 secs

     total energy              =   -1133.81750567 Ry
     estimated scf accuracy    <       0.02819965 Ry

     total magnetization       =    10.00 Bohr mag/cell
     absolute magnetization    =    10.02 Bohr mag/cell

     iteration #  6     ecut=    48.00 Ry     beta= 0.50
     Davidson diagonalization with overlap
     c_bands:  1 eigenvalues not converged
     ethr =  1.81E-05,  avg # of iterations = 11.6

     negative rho (up, down):  3.815E-03 3.903E-03

     total cpu time spent up to now is      280.0 secs

     total energy              =   -1133.82022997 Ry
     estimated scf accuracy    <       0.03779863 Ry

     total magnetization       =    10.00 Bohr mag/cell
     absolute magnetization    =    10.02 Bohr mag/cell

     iteration #  7     ecut=    48.00 Ry     beta= 0.50
     Davidson diagonalization with overlap
     ethr =  1.81E-05,  avg # of iterations =  6.2

     negative rho (up, down):  3.408E-03 3.861E-03

     total cpu time spent up to now is      321.6 secs

     total energy              =   -1133.82698888 Ry
     estimated scf accuracy    <       0.00263729 Ry

     total magnetization       =    10.00 Bohr mag/cell
     absolute magnetization    =    10.02 Bohr mag/cell

     iteration #  8     ecut=    48.00 Ry     beta= 0.50
     Davidson diagonalization with overlap
     ethr =  1.69E-06,  avg # of iterations =  9.3

     negative rho (up, down):  3.193E-03 3.744E-03

     total cpu time spent up to now is      368.2 secs

     total energy              =   -1133.82774744 Ry
     estimated scf accuracy    <       0.00049431 Ry

     total magnetization       =    10.00 Bohr mag/cell
     absolute magnetization    =    10.01 Bohr mag/cell

     iteration #  9     ecut=    48.00 Ry     beta= 0.50
     Davidson diagonalization with overlap
     ethr =  3.17E-07,  avg # of iterations =  2.8

     negative rho (up, down):  3.147E-03 3.749E-03

     total cpu time spent up to now is      402.3 secs

     total energy              =   -1133.82791289 Ry
     estimated scf accuracy    <       0.00006842 Ry

     total magnetization       =    10.00 Bohr mag/cell
     absolute magnetization    =    10.01 Bohr mag/cell

     iteration # 10     ecut=    48.00 Ry     beta= 0.50
     Davidson diagonalization with overlap
     ethr =  4.39E-08,  avg # of iterations =  4.4

     negative rho (up, down):  3.122E-03 3.753E-03

     total cpu time spent up to now is      446.2 secs

     total energy              =   -1133.82797587 Ry
     estimated scf accuracy    <       0.00002339 Ry

     total magnetization       =    10.00 Bohr mag/cell
     absolute magnetization    =    10.01 Bohr mag/cell

     iteration # 11     ecut=    48.00 Ry     beta= 0.50
     Davidson diagonalization with overlap
     ethr =  1.50E-08,  avg # of iterations =  4.2

     negative rho (up, down):  3.117E-03 3.771E-03

     total cpu time spent up to now is      481.6 secs

     total energy              =   -1133.82800121 Ry
     estimated scf accuracy    <       0.00000652 Ry

     total magnetization       =    10.00 Bohr mag/cell
     absolute magnetization    =    10.01 Bohr mag/cell

     iteration # 12     ecut=    48.00 Ry     beta= 0.50
     Davidson diagonalization with overlap
     ethr =  4.18E-09,  avg # of iterations =  4.5

     negative rho (up, down):  3.114E-03 3.790E-03

     total cpu time spent up to now is      519.7 secs

     total energy              =   -1133.82801214 Ry
     estimated scf accuracy    <       0.00000437 Ry

     total magnetization       =    10.00 Bohr mag/cell
     absolute magnetization    =    10.01 Bohr mag/cell

     iteration # 13     ecut=    48.00 Ry     beta= 0.50
     Davidson diagonalization with overlap
     ethr =  2.80E-09,  avg # of iterations =  4.7

     negative rho (up, down):  3.110E-03 3.795E-03

     total cpu time spent up to now is      556.0 secs

     total energy              =   -1133.82801727 Ry
     estimated scf accuracy    <       0.00000030 Ry

     total magnetization       =    10.00 Bohr mag/cell
     absolute magnetization    =    10.01 Bohr mag/cell

     iteration # 14     ecut=    48.00 Ry     beta= 0.50
     Davidson diagonalization with overlap
     ethr =  1.93E-10,  avg # of iterations =  5.1

     negative rho (up, down):  3.108E-03 3.796E-03
 
     Magnetic moment per site:
     atom:    1    charge:    0.8805    magn:    0.0001    constr:    0.0000
     atom:    2    charge:    0.8806    magn:    0.0004    constr:    0.0000
     atom:    3    charge:    0.8792    magn:    0.0001    constr:    0.0000
     atom:    4    charge:    0.8808    magn:    0.0002    constr:    0.0000
     atom:    5    charge:    0.8801    magn:    0.0008    constr:    0.0000
     atom:    6    charge:    0.8800    magn:    0.0001    constr:    0.0000
     atom:    7    charge:    2.8610    magn:    0.0000    constr:    0.0000
     atom:    8    charge:    2.8609    magn:    0.0002    constr:    0.0000
     atom:    9    charge:    2.8610    magn:    0.0064    constr:    0.0000
     atom:   10    charge:    2.8609    magn:    0.0014    constr:    0.0000
     atom:   11    charge:    2.8607    magn:    0.0009    constr:    0.0000
     atom:   12    charge:    2.8609    magn:    0.0003    constr:    0.0000
     atom:   13    charge:    2.8599    magn:    0.0007    constr:    0.0000
     atom:   14    charge:    2.8600    magn:    0.0004    constr:    0.0000
     atom:   15    charge:    2.8594    magn:    0.0046    constr:    0.0000
     atom:   16    charge:    0.8800    magn:    0.0001    constr:    0.0000
     atom:   17    charge:    0.8803    magn:    0.0004    constr:    0.0000
     atom:   18    charge:    0.8797    magn:    0.0001    constr:    0.0000
     atom:   19    charge:    0.8796    magn:    0.0008    constr:    0.0000
     atom:   20    charge:    0.8799    magn:    0.0001    constr:    0.0000
     atom:   21    charge:    0.8797    magn:    0.0001    constr:    0.0000
     atom:   22    charge:    2.8612    magn:    0.0007    constr:    0.0000
     atom:   23    charge:    0.8798    magn:    0.0001    constr:    0.0000
     atom:   24    charge:    0.8799    magn:    0.0001    constr:    0.0000
     atom:   25    charge:    0.8807    magn:   -0.0000    constr:    0.0000
     atom:   26    charge:    2.8598    magn:    0.0003    constr:    0.0000
     atom:   27    charge:    2.8598    magn:    0.0002    constr:    0.0000
     atom:   28    charge:    2.8595    magn:    0.0040    constr:    0.0000
     atom:   29    charge:    2.8593    magn:    0.0040    constr:    0.0000
     atom:   30    charge:    2.8596    magn:    0.0064    constr:    0.0000
     atom:   31    charge:    2.8596    magn:    0.0014    constr:    0.0000
     atom:   32    charge:    0.8809    magn:   -0.0000    constr:    0.0000
     atom:   33    charge:   12.5474    magn:    4.2568    constr:    0.0000
     atom:   34    charge:   12.5474    magn:    4.2567    constr:    0.0000

     total cpu time spent up to now is      594.7 secs

     End of self-consistent calculation

 ------ SPIN UP ------------


          k = 0.1667 0.2887 0.0000 ( 59267 PWs)   bands (ev):

   -72.8811 -72.8740 -44.4299 -44.3576 -44.2810 -44.2740 -44.2549 -44.2479
   -21.2474 -20.6606 -20.6569 -20.1052 -20.0969 -19.5871 -19.5845 -19.1001
   -18.6979 -18.6923 -18.4585 -18.4509 -18.1957 -18.0860 -18.0789 -17.8503
   -12.4845 -12.2078 -12.2015 -11.8215 -11.8184 -11.6592 -11.1919 -11.1901
   -10.3926 -10.3683 -10.1184 -10.1155  -9.5896  -9.5887  -8.8372  -8.8267
    -8.8231  -8.7664  -8.7630  -8.5972  -8.1978  -8.0533  -8.0149  -7.8301
    -7.8276  -7.4396  -7.4373  -7.2836  -7.2581  -7.2084  -7.2075  -6.9621
    -6.9551  -6.5679  -6.5371  -6.1545  -6.1536  -5.8723  -5.4193  -5.2971
    -5.2740  -5.2009  -4.9131  -4.9008  -4.5082  -4.3580  -4.3399  -3.9802
    -2.8541  -2.0209  -1.9993  -1.8210  -1.6323  -1.5770  -1.4868  -1.4735
    -1.3839  -1.3785  -1.3292  -0.7540   0.6811   0.8483   1.0557   1.2014
     1.2968   1.4820   1.5191   1.5744   1.6090   1.7981

          k = 0.1667-0.4811 0.0000 ( 59291 PWs)   bands (ev):

   -72.8811 -72.8740 -44.4299 -44.3576 -44.2810 -44.2740 -44.2550 -44.2479
   -21.1170 -20.9127 -20.7235 -20.1614 -19.8049 -19.4672 -19.3176 -19.1753
   -19.0150 -18.7793 -18.6422 -18.5449 -18.1498 -18.0900 -17.9228 -17.7246
   -12.3487 -12.1138 -12.0453 -11.9069 -11.6810 -11.6596 -11.5532 -10.9427
   -10.8907 -10.6240 -10.5237  -9.8609  -9.6939  -9.3368  -9.1115  -8.6684
    -8.6235  -8.5538  -8.3897  -8.3677  -8.1622  -8.1233  -8.0634  -8.0508
    -7.6893  -7.6240  -7.4948  -7.4750  -7.3566  -7.1715  -7.0684  -6.8610
    -6.6228  -6.3896  -6.1785  -6.1585  -5.9727  -5.9299  -5.7844  -5.7457
    -5.4522  -5.3977  -5.2099  -5.0424  -4.4456  -4.3485  -4.0897  -3.7680
    -2.8512  -2.0206  -1.9999  -1.8175  -1.6306  -1.5769  -1.4894  -1.4740
    -1.3837  -1.3782  -1.3312  -0.7584   0.5950   0.8352   1.0751   1.1147
     1.2439   1.2728   1.3967   1.8410   1.9295   2.1088

          k = 0.1667-0.0962 0.0000 ( 59226 PWs)   bands (ev):

   -72.8811 -72.8740 -44.4299 -44.3576 -44.2810 -44.2739 -44.2549 -44.2479
   -21.3138 -20.5362 -20.3476 -20.3379 -19.9906 -19.9798 -19.8065 -18.7317
   -18.7212 -18.3765 -18.3682 -18.3554 -18.2705 -18.2619 -18.0794 -18.0708
   -12.5087 -12.5021 -12.4087 -11.5827 -11.5759 -11.4279 -11.4204 -10.9272
   -10.9239  -9.9305  -9.9262  -9.6763  -9.3755  -9.3729  -9.2311  -9.2284
    -9.0429  -9.0408  -8.9240  -8.3249  -8.3216  -7.9023  -7.9000  -7.8813
    -7.8457  -7.7710  -7.6114  -7.5808  -7.1376  -7.0902  -6.9599  -6.8892
    -6.8856  -6.8515  -6.5328  -6.5282  -6.2582  -5.3538  -5.3147  -5.1440
    -5.0660  -4.8098  -4.8007  -4.7489  -4.6161  -4.6078  -4.3560  -4.3299
    -2.8574  -2.0212  -1.9987  -1.8245  -1.6348  -1.5772  -1.4843  -1.4731
    -1.3839  -1.3789  -1.3275  -0.7494   0.7822   0.8460   1.0069   1.2106
     1.2604   1.3476   1.5829   1.6016   1.7296   1.9389

          k =-0.5000-0.8660 0.0000 ( 59292 PWs)   bands (ev):

   -72.8811 -72.8740 -44.4299 -44.3576 -44.2810 -44.2740 -44.2549 -44.2479
   -21.0498 -21.0476 -20.4720 -20.4626 -19.4299 -19.4194 -19.4146 -19.4085
   -18.9924 -18.9901 -18.3257 -18.3212 -18.3172 -18.3145 -17.7962 -17.7875
   -12.0713 -12.0663 -12.0638 -12.0615 -11.8803 -11.8720 -11.3295 -11.3282
   -10.2367 -10.2309 -10.1369 -10.1334 -10.1302 -10.1258  -8.5901  -8.5508
    -8.5475  -8.5455  -8.5448  -8.5387  -7.8657  -7.8641  -7.8591  -7.8575
    -7.8259  -7.8197  -7.7837  -7.7518  -7.4904  -7.4873  -6.6137  -6.6068
    -6.3628  -6.3313  -6.3065  -6.2928  -6.1904  -6.1886  -5.7120  -5.6972
    -5.5461  -5.5427  -4.7292  -4.7202  -4.6969  -4.6922  -3.8914  -3.8655
    -2.8383  -2.0184  -1.9992  -1.8191  -1.6330  -1.5763  -1.4903  -1.4737
    -1.3890  -1.3822  -1.3343  -0.8781   0.7816   0.9973   1.1206   1.1653
     1.3642   1.5677   1.5849   1.6058   1.7312   1.7477

          k =-0.1667 0.2887 0.0000 ( 59267 PWs)   bands (ev):

   -72.8811 -72.8740 -44.4299 -44.3576 -44.2810 -44.2740 -44.2549 -44.2479
   -21.2474 -20.6607 -20.6568 -20.1052 -20.0969 -19.5871 -19.5845 -19.1001
   -18.6979 -18.6923 -18.4585 -18.4509 -18.1957 -18.0860 -18.0789 -17.8504
   -12.4845 -12.2078 -12.2015 -11.8215 -11.8184 -11.6592 -11.1919 -11.1901
   -10.3926 -10.3683 -10.1184 -10.1156  -9.5896  -9.5887  -8.8372  -8.8266
    -8.8230  -8.7664  -8.7630  -8.5971  -8.1978  -8.0533  -8.0149  -7.8301
    -7.8275  -7.4396  -7.4373  -7.2836  -7.2581  -7.2083  -7.2075  -6.9622
    -6.9552  -6.5679  -6.5371  -6.1545  -6.1536  -5.8723  -5.4194  -5.2971
    -5.2740  -5.2008  -4.9131  -4.9008  -4.5083  -4.3580  -4.3399  -3.9802
    -2.8541  -2.0209  -1.9993  -1.8210  -1.6323  -1.5770  -1.4868  -1.4735
    -1.3839  -1.3785  -1.3292  -0.7540   0.6811   0.8483   1.0557   1.2014
     1.2967   1.4819   1.5192   1.5744   1.6090   1.7980

          k = 0.3333 0.0000 0.0000 ( 59267 PWs)   bands (ev):

   -72.8811 -72.8740 -44.4299 -44.3576 -44.2810 -44.2739 -44.2549 -44.2479
   -21.2470 -20.6860 -20.6314 -20.1059 -20.0946 -19.6137 -19.5599 -19.1022
   -18.7141 -18.6710 -18.4618 -18.4495 -18.1909 -18.1090 -18.0628 -17.8495
   -12.4843 -12.2089 -12.2001 -11.8300 -11.8122 -11.6570 -11.2105 -11.1722
   -10.3917 -10.3680 -10.1311 -10.1032  -9.5960  -9.5812  -8.8454  -8.8238
    -8.8152  -8.7886  -8.7422  -8.5980  -8.1996  -8.1022  -7.9656  -7.8291
    -7.8265  -7.4453  -7.4309  -7.2940  -7.2423  -7.2185  -7.1972  -6.9647
    -6.9543  -6.6185  -6.4938  -6.1573  -6.1499  -5.8787  -5.4191  -5.3114
    -5.2492  -5.2011  -4.9213  -4.8951  -4.4995  -4.3847  -4.3258  -3.9786
    -2.8459  -2.0191  -1.9986  -1.8222  -1.6348  -1.5767  -1.4870  -1.4733
    -1.3873  -1.3812  -1.3311  -0.8374   0.8269   0.9908   1.0798   1.2485
     1.3206   1.4979   1.5147   1.5553   1.5880   1.8287

          k =-0.1667-0.4811 0.0000 ( 59291 PWs)   bands (ev):

   -72.8811 -72.8740 -44.4299 -44.3576 -44.2810 -44.2740 -44.2550 -44.2479
   -21.1170 -20.9127 -20.7235 -20.1614 -19.8049 -19.4672 -19.3176 -19.1753
   -19.0150 -18.7793 -18.6422 -18.5449 -18.1498 -18.0900 -17.9228 -17.7246
   -12.3487 -12.1138 -12.0453 -11.9069 -11.6810 -11.6596 -11.5532 -10.9427
   -10.8907 -10.6240 -10.5237  -9.8609  -9.6939  -9.3368  -9.1116  -8.6684
    -8.6234  -8.5538  -8.3896  -8.3677  -8.1622  -8.1233  -8.0634  -8.0509
    -7.6893  -7.6241  -7.4948  -7.4750  -7.3566  -7.1715  -7.0684  -6.8610
    -6.6228  -6.3896  -6.1785  -6.1585  -5.9727  -5.9299  -5.7844  -5.7457
    -5.4522  -5.3977  -5.2099  -5.0424  -4.4456  -4.3485  -4.0897  -3.7680
    -2.8512  -2.0206  -1.9999  -1.8175  -1.6306  -1.5769  -1.4894  -1.4740
    -1.3837  -1.3782  -1.3312  -0.7584   0.5950   0.8352   1.0751   1.1147
     1.2439   1.2728   1.3967   1.8409   1.9295   2.1088

          k = 0.5000-0.0962 0.0000 ( 59291 PWs)   bands (ev):

   -72.8811 -72.8740 -44.4299 -44.3576 -44.2810 -44.2740 -44.2549 -44.2479
   -21.1143 -20.9202 -20.7186 -20.1595 -19.8050 -19.4693 -19.3233 -19.1704
   -19.0160 -18.7804 -18.6316 -18.5511 -18.1373 -18.1068 -17.9199 -17.7243
   -12.3477 -12.1143 -12.0432 -11.9109 -11.6931 -11.6449 -11.5556 -10.9430
   -10.8886 -10.6224 -10.5262  -9.8586  -9.6945  -9.3378  -9.1110  -8.6579
    -8.6240  -8.5517  -8.4005  -8.3919  -8.1602  -8.1035  -8.0765  -8.0391
    -7.6853  -7.6246  -7.4939  -7.4761  -7.3503  -7.1730  -7.0692  -6.8604
    -6.6232  -6.3990  -6.1948  -6.1580  -5.9573  -5.9292  -5.7836  -5.7486
    -5.4532  -5.3983  -5.1864  -5.0568  -4.4235  -4.3768  -4.0864  -3.7673
    -2.8384  -2.0184  -1.9992  -1.8192  -1.6334  -1.5763  -1.4902  -1.4737
    -1.3890  -1.3822  -1.3344  -0.8779   0.7682   0.9930   1.1105   1.1583
     1.3018   1.3173   1.5494   1.7497   1.8335   1.9185

          k =-0.3333-0.3849 0.0000 ( 59291 PWs)   bands (ev):

   -72.8811 -72.8740 -44.4299 -44.3576 -44.2810 -44.2740 -44.2549 -44.2479
   -21.1152 -20.9175 -20.7205 -20.1593 -19.8070 -19.4672 -19.3182 -19.1740
   -19.0189 -18.7786 -18.6331 -18.5502 -18.1400 -18.1036 -17.9201 -17.7245
   -12.3482 -12.1124 -12.0455 -11.9100 -11.6820 -11.6573 -11.5545 -10.9428
   -10.8882 -10.6217 -10.5271  -9.8594  -9.6946  -9.3372  -9.1119  -8.6612
    -8.6227  -8.5538  -8.3918  -8.3865  -8.1617  -8.1110  -8.0634  -8.0534
    -7.6856  -7.6230  -7.5006  -7.4699  -7.3490  -7.1731  -7.0698  -6.8686
    -6.6212  -6.3907  -6.1791  -6.1602  -5.9700  -5.9281  -5.7838  -5.7574
    -5.4531  -5.3929  -5.1872  -5.0574  -4.4261  -4.3741  -4.0858  -3.7676
    -2.8426  -2.0193  -1.9996  -1.8186  -1.6322  -1.5765  -1.4898  -1.4740
    -1.3872  -1.3809  -1.3332  -0.8414   0.7068   0.9557   1.1036   1.1494
     1.2325   1.3805   1.4270   1.8024   1.8996   1.9165

          k = 0.5000 0.0962 0.0000 ( 59291 PWs)   bands (ev):

   -72.8811 -72.8740 -44.4299 -44.3576 -44.2810 -44.2740 -44.2549 -44.2479
   -21.1143 -20.9202 -20.7186 -20.1595 -19.8050 -19.4693 -19.3233 -19.1704
   -19.0160 -18.7804 -18.6316 -18.5511 -18.1373 -18.1068 -17.9199 -17.7243
   -12.3477 -12.1143 -12.0432 -11.9110 -11.6931 -11.6449 -11.5556 -10.9430
   -10.8886 -10.6224 -10.5262  -9.8586  -9.6946  -9.3378  -9.1109  -8.6579
    -8.6240  -8.5517  -8.4005  -8.3919  -8.1602  -8.1035  -8.0765  -8.0390
    -7.6854  -7.6245  -7.4939  -7.4762  -7.3503  -7.1730  -7.0692  -6.8604
    -6.6231  -6.3990  -6.1948  -6.1579  -5.9573  -5.9291  -5.7837  -5.7486
    -5.4533  -5.3983  -5.1864  -5.0568  -4.4234  -4.3768  -4.0865  -3.7673
    -2.8384  -2.0184  -1.9992  -1.8192  -1.6334  -1.5763  -1.4902  -1.4737
    -1.3890  -1.3822  -1.3344  -0.8779   0.7682   0.9930   1.1105   1.1583
     1.3018   1.3173   1.5494   1.7497   1.8335   1.9185

          k =-0.3333 0.3849 0.0000 ( 59291 PWs)   bands (ev):

   -72.8811 -72.8740 -44.4299 -44.3576 -44.2810 -44.2740 -44.2549 -44.2479
   -21.1152 -20.9175 -20.7205 -20.1593 -19.8070 -19.4673 -19.3182 -19.1740
   -19.0189 -18.7787 -18.6331 -18.5502 -18.1400 -18.1036 -17.9201 -17.7245
   -12.3481 -12.1124 -12.0455 -11.9100 -11.6820 -11.6573 -11.5545 -10.9429
   -10.8882 -10.6217 -10.5271  -9.8594  -9.6946  -9.3372  -9.1119  -8.6612
    -8.6228  -8.5538  -8.3918  -8.3865  -8.1617  -8.1110  -8.0634  -8.0534
    -7.6855  -7.6230  -7.5006  -7.4699  -7.3490  -7.1730  -7.0699  -6.8686
    -6.6212  -6.3907  -6.1791  -6.1602  -5.9699  -5.9282  -5.7837  -5.7574
    -5.4530  -5.3929  -5.1872  -5.0574  -4.4261  -4.3741  -4.0858  -3.7676
    -2.8426  -2.0193  -1.9996  -1.8186  -1.6322  -1.5765  -1.4898  -1.4740
    -1.3872  -1.3809  -1.3332  -0.8414   0.7068   0.9557   1.1036   1.1494
     1.2325   1.3805   1.4270   1.8024   1.8996   1.9165

          k =-0.1667-0.0962 0.0000 ( 59226 PWs)   bands (ev):

   -72.8811 -72.8740 -44.4299 -44.3576 -44.2810 -44.2739 -44.2549 -44.2479
   -21.3138 -20.5362 -20.3476 -20.3379 -19.9906 -19.9798 -19.8065 -18.7317
   -18.7212 -18.3765 -18.3682 -18.3554 -18.2705 -18.2619 -18.0794 -18.0708
   -12.5087 -12.5021 -12.4086 -11.5827 -11.5759 -11.4279 -11.4204 -10.9272
   -10.9239  -9.9305  -9.9262  -9.6763  -9.3755  -9.3729  -9.2311  -9.2285
    -9.0429  -9.0409  -8.9240  -8.3249  -8.3216  -7.9023  -7.8999  -7.8813
    -7.8457  -7.7711  -7.6114  -7.5808  -7.1376  -7.0902  -6.9600  -6.8892
    -6.8856  -6.8515  -6.5327  -6.5281  -6.2583  -5.3538  -5.3147  -5.1439
    -5.0661  -4.8098  -4.8006  -4.7489  -4.6160  -4.6079  -4.3560  -4.3299
    -2.8574  -2.0212  -1.9987  -1.8245  -1.6348  -1.5772  -1.4843  -1.4731
    -1.3839  -1.3789  -1.3275  -0.7494   0.7821   0.8460   1.0069   1.2105
     1.2604   1.3477   1.5829   1.6016   1.7295   1.9388

          k =-0.0000-0.1925 0.0000 ( 59226 PWs)   bands (ev):

   -72.8811 -72.8740 -44.4299 -44.3575 -44.2810 -44.2740 -44.2549 -44.2479
   -21.3140 -20.5312 -20.3543 -20.3401 -19.9878 -19.9751 -19.8100 -18.7311
   -18.7181 -18.3940 -18.3735 -18.3527 -18.2555 -18.2554 -18.0836 -18.0717
   -12.5099 -12.5010 -12.4085 -11.5848 -11.5756 -11.4269 -11.4182 -10.9287
   -10.9243  -9.9295  -9.9271  -9.6768  -9.3760  -9.3712  -9.2306  -9.2294
    -9.0429  -9.0412  -8.9246  -8.3244  -8.3212  -7.9013  -7.8993  -7.8642
    -7.8441  -7.7728  -7.6342  -7.5920  -7.1139  -7.0869  -6.9586  -6.8909
    -6.8855  -6.8633  -6.5331  -6.5270  -6.2589  -5.3448  -5.3154  -5.1442
    -5.0658  -4.8365  -4.8080  -4.7524  -4.5958  -4.5895  -4.3583  -4.3368
    -2.8614  -2.0221  -1.9991  -1.8239  -1.6336  -1.5774  -1.4845  -1.4730
    -1.3823  -1.3774  -1.3267  -0.7007   0.6662   0.8057   0.9964   1.1823
     1.2474   1.3795   1.5781   1.6185   1.6873   2.0016

          k = 0.5000-0.8660 0.0000 ( 59292 PWs)   bands (ev):

   -72.8811 -72.8740 -44.4299 -44.3576 -44.2810 -44.2740 -44.2549 -44.2479
   -21.0498 -21.0476 -20.4720 -20.4626 -19.4298 -19.4194 -19.4146 -19.4085
   -18.9924 -18.9901 -18.3258 -18.3212 -18.3173 -18.3145 -17.7962 -17.7874
   -12.0713 -12.0663 -12.0638 -12.0615 -11.8803 -11.8720 -11.3295 -11.3282
   -10.2367 -10.2309 -10.1369 -10.1334 -10.1302 -10.1258  -8.5901  -8.5507
    -8.5475  -8.5455  -8.5448  -8.5387  -7.8657  -7.8641  -7.8591  -7.8575
    -7.8259  -7.8198  -7.7837  -7.7518  -7.4906  -7.4873  -6.6136  -6.6067
    -6.3628  -6.3313  -6.3065  -6.2928  -6.1903  -6.1884  -5.7120  -5.6972
    -5.5462  -5.5427  -4.7292  -4.7201  -4.6968  -4.6923  -3.8914  -3.8655
    -2.8383  -2.0184  -1.9992  -1.8191  -1.6330  -1.5763  -1.4903  -1.4737
    -1.3890  -1.3822  -1.3343  -0.8781   0.7816   0.9974   1.1207   1.1653
     1.3642   1.5677   1.5848   1.6056   1.7313   1.7477

          k =-1.0000 0.0000 0.0000 ( 59292 PWs)   bands (ev):

   -72.8811 -72.8740 -44.4299 -44.3576 -44.2810 -44.2740 -44.2549 -44.2478
   -21.0747 -21.0200 -20.4766 -20.4627 -19.4246 -19.4215 -19.4202 -19.4001
   -19.0133 -18.9708 -18.3712 -18.3357 -18.2920 -18.2807 -17.7985 -17.7867
   -12.1025 -12.0815 -12.0397 -12.0350 -11.8824 -11.8708 -11.3509 -11.3091
   -10.2424 -10.2398 -10.1328 -10.1317 -10.1249 -10.1239  -8.6321  -8.5750
    -8.5581  -8.5281  -8.5174  -8.4914  -7.8757  -7.8696  -7.8610  -7.8603
    -7.8173  -7.8142  -7.7907  -7.7584  -7.5140  -7.4660  -6.6130  -6.6046
    -6.3571  -6.3286  -6.3091  -6.2791  -6.2089  -6.1728  -5.7381  -5.6779
    -5.5668  -5.5224  -4.7946  -4.7536  -4.6492  -4.6443  -3.8893  -3.8697
    -2.8554  -2.0210  -1.9999  -1.8170  -1.6298  -1.5770  -1.4895  -1.4737
    -1.3821  -1.3769  -1.3302  -0.7106   0.5520   0.7502   1.0679   1.1138
     1.1895   1.5475   1.5762   1.5998   1.6415   1.9390

 ------ SPIN DOWN ----------


          k = 0.1667 0.2887 0.0000 ( 59267 PWs)   bands (ev):

   -68.6820 -68.6738 -40.3616 -40.2754 -40.0987 -40.0903 -40.0522 -40.0437
   -21.2437 -20.6570 -20.6533 -20.1011 -20.0936 -19.5838 -19.5804 -19.0963
   -18.6932 -18.6885 -18.4544 -18.4473 -18.1910 -18.0821 -18.0758 -17.8464
   -12.4823 -12.2050 -12.1994 -11.8192 -11.8163 -11.6571 -11.1895 -11.1876
   -10.3898 -10.3659 -10.1154 -10.1131  -9.5870  -9.5865  -8.8248  -8.8206
    -8.8168  -8.7643  -8.7604  -8.5949  -8.1955  -8.0301  -8.0054  -7.8276
    -7.8253  -7.4362  -7.4345  -7.2641  -7.2457  -7.2064  -7.2049  -6.9596
    -6.9530  -6.5473  -6.5289  -6.1518  -6.1512  -5.8565  -5.4163  -5.2745
    -5.2626  -5.1983  -4.8985  -4.8887  -4.4911  -4.3427  -4.3316  -3.9666
    -1.4419   0.3769   0.8090   1.0106   1.1416   1.1957   1.2727   1.3522
     1.4292   1.4922   1.5543   1.6043   1.6299   1.7458   1.9077   1.9774
     2.0387   2.0886   2.1416   2.1842   2.2884   2.3333

          k = 0.1667-0.4811 0.0000 ( 59291 PWs)   bands (ev):

   -68.6820 -68.6738 -40.3616 -40.2754 -40.0987 -40.0903 -40.0523 -40.0437
   -21.1130 -20.9095 -20.7197 -20.1576 -19.8013 -19.4634 -19.3139 -19.1714
   -19.0112 -18.7757 -18.6370 -18.5418 -18.1442 -18.0878 -17.9187 -17.7205
   -12.3464 -12.1114 -12.0431 -11.9048 -11.6790 -11.6570 -11.5510 -10.9401
   -10.8880 -10.6214 -10.5214  -9.8580  -9.6915  -9.3340  -9.1091  -8.6458
    -8.6210  -8.5509  -8.3875  -8.3561  -8.1598  -8.1067  -8.0611  -8.0485
    -7.6866  -7.6216  -7.4923  -7.4728  -7.3395  -7.1687  -7.0661  -6.8456
    -6.6197  -6.3745  -6.1626  -6.1560  -5.9579  -5.9268  -5.7817  -5.7309
    -5.4496  -5.3834  -5.1882  -5.0334  -4.4251  -4.3422  -4.0763  -3.7547
    -1.4326   0.3644   0.8050   0.9712   1.0479   1.1414   1.2250   1.2870
     1.3764   1.4242   1.5677   1.7299   1.8010   1.8799   1.9087   2.0686
     2.1095   2.1369   2.1603   2.2211   2.3076   2.3317

          k = 0.1667-0.0962 0.0000 ( 59226 PWs)   bands (ev):

   -68.6820 -68.6738 -40.3616 -40.2754 -40.0988 -40.0903 -40.0522 -40.0437
   -21.3102 -20.5320 -20.3440 -20.3349 -19.9861 -19.9765 -19.8033 -18.7268
   -18.7175 -18.3717 -18.3646 -18.3517 -18.2661 -18.2581 -18.0756 -18.0677
   -12.5060 -12.5001 -12.4064 -11.5802 -11.5741 -11.4251 -11.4183 -10.9245
   -10.9216  -9.9279  -9.9240  -9.6736  -9.3731  -9.3705  -9.2281  -9.2258
    -9.0406  -9.0385  -8.9060  -8.3218  -8.3187  -7.8996  -7.8975  -7.8602
    -7.8419  -7.7688  -7.5953  -7.5707  -7.1134  -7.0796  -6.9574  -6.8866
    -6.8835  -6.8414  -6.5300  -6.5260  -6.2558  -5.3307  -5.3031  -5.1412
    -5.0633  -4.7915  -4.7846  -4.7376  -4.6023  -4.5950  -4.3405  -4.3208
    -1.4514   0.3912   0.8148   1.0041   1.1039   1.1641   1.2135   1.3287
     1.4717   1.5361   1.6006   1.6935   1.7821   1.8621   1.8931   1.9381
     1.9810   2.0570   2.1225   2.1344   2.2435   2.3043

          k =-0.5000-0.8660 0.0000 ( 59292 PWs)   bands (ev):

   -68.6820 -68.6738 -40.3616 -40.2755 -40.0988 -40.0903 -40.0522 -40.0437
   -21.0463 -21.0436 -20.4682 -20.4595 -19.4246 -19.4155 -19.4113 -19.4053
   -18.9891 -18.9861 -18.3200 -18.3183 -18.3156 -18.3088 -17.7919 -17.7839
   -12.0675 -12.0647 -12.0625 -12.0586 -11.8779 -11.8704 -11.3272 -11.3257
   -10.2339 -10.2289 -10.1336 -10.1307 -10.1276 -10.1237  -8.5629  -8.5451
    -8.5446  -8.5434  -8.5419  -8.5325  -7.8630  -7.8614  -7.8571  -7.8554
    -7.8222  -7.8165  -7.7667  -7.7414  -7.4887  -7.4845  -6.6105  -6.6046
    -6.3335  -6.3127  -6.2961  -6.2839  -6.1881  -6.1852  -5.6945  -5.6881
    -5.5438  -5.5398  -4.7078  -4.6980  -4.6891  -4.6863  -3.8750  -3.8557
    -1.4084   0.1258   0.8097   1.0619   1.0733   1.1594   1.2926   1.4254
     1.5159   1.5397   1.5909   1.7024   1.7602   1.8761   1.9216   1.9556
     1.9731   2.0504   2.1563   2.2158   2.3101   2.3384

          k =-0.1667 0.2887 0.0000 ( 59267 PWs)   bands (ev):

   -68.6820 -68.6738 -40.3616 -40.2754 -40.0987 -40.0903 -40.0522 -40.0437
   -21.2437 -20.6570 -20.6532 -20.1011 -20.0936 -19.5839 -19.5804 -19.0963
   -18.6932 -18.6884 -18.4544 -18.4473 -18.1909 -18.0821 -18.0758 -17.8464
   -12.4823 -12.2050 -12.1994 -11.8192 -11.8164 -11.6572 -11.1895 -11.1876
   -10.3898 -10.3659 -10.1154 -10.1131  -9.5870  -9.5865  -8.8248  -8.8206
    -8.8168  -8.7643  -8.7605  -8.5948  -8.1956  -8.0301  -8.0054  -7.8276
    -7.8253  -7.4362  -7.4345  -7.2641  -7.2457  -7.2063  -7.2048  -6.9597
    -6.9531  -6.5473  -6.5289  -6.1518  -6.1511  -5.8565  -5.4164  -5.2745
    -5.2626  -5.1982  -4.8985  -4.8887  -4.4912  -4.3427  -4.3316  -3.9666
    -1.4419   0.3769   0.8090   1.0106   1.1416   1.1957   1.2727   1.3522
     1.4292   1.4922   1.5543   1.6043   1.6299   1.7458   1.9078   1.9774
     2.0387   2.0887   2.1416   2.1842   2.2883   2.3333

          k = 0.3333 0.0000 0.0000 ( 59267 PWs)   bands (ev):

   -68.6820 -68.6738 -40.3616 -40.2755 -40.0988 -40.0903 -40.0522 -40.0437
   -21.2433 -20.6806 -20.6296 -20.1023 -20.0911 -19.6081 -19.5580 -19.0981
   -18.7082 -18.6692 -18.4576 -18.4457 -18.1869 -18.1027 -18.0609 -17.8457
   -12.4820 -12.2067 -12.1976 -11.8275 -11.8102 -11.6551 -11.2070 -11.1707
   -10.3891 -10.3656 -10.1274 -10.1015  -9.5932  -9.5793  -8.8319  -8.8203
    -8.8080  -8.7851  -8.7410  -8.5956  -8.1971  -8.0735  -7.9617  -7.8267
    -7.8244  -7.4416  -7.4287  -7.2728  -7.2330  -7.2154  -7.1957  -6.9620
    -6.9519  -6.5917  -6.4896  -6.1545  -6.1478  -5.8611  -5.4162  -5.2909
    -5.2387  -5.1985  -4.9049  -4.8841  -4.4846  -4.3671  -4.3162  -3.9657
    -1.4266   0.2067   0.8577   1.0066   1.1169   1.1779   1.2919   1.4414
     1.4762   1.4891   1.5534   1.7142   1.7709   1.8476   1.8949   1.9407
     2.0109   2.0837   2.1267   2.1841   2.2937   2.3196

          k =-0.1667-0.4811 0.0000 ( 59291 PWs)   bands (ev):

   -68.6820 -68.6738 -40.3616 -40.2754 -40.0987 -40.0903 -40.0523 -40.0437
   -21.1130 -20.9095 -20.7197 -20.1576 -19.8013 -19.4634 -19.3139 -19.1714
   -19.0112 -18.7757 -18.6370 -18.5418 -18.1442 -18.0878 -17.9187 -17.7205
   -12.3464 -12.1114 -12.0431 -11.9048 -11.6790 -11.6570 -11.5510 -10.9401
   -10.8881 -10.6214 -10.5214  -9.8580  -9.6915  -9.3340  -9.1092  -8.6458
    -8.6209  -8.5509  -8.3874  -8.3561  -8.1597  -8.1067  -8.0612  -8.0486
    -7.6866  -7.6217  -7.4923  -7.4728  -7.3395  -7.1686  -7.0661  -6.8456
    -6.6197  -6.3746  -6.1626  -6.1560  -5.9579  -5.9268  -5.7817  -5.7309
    -5.4497  -5.3834  -5.1882  -5.0334  -4.4251  -4.3422  -4.0763  -3.7547
    -1.4326   0.3644   0.8050   0.9711   1.0479   1.1414   1.2250   1.2870
     1.3764   1.4242   1.5677   1.7299   1.8010   1.8799   1.9087   2.0686
     2.1096   2.1370   2.1603   2.2211   2.3076   2.3317

          k = 0.5000-0.0962 0.0000 ( 59291 PWs)   bands (ev):

   -68.6820 -68.6738 -40.3616 -40.2755 -40.0987 -40.0903 -40.0522 -40.0437
   -21.1106 -20.9161 -20.7155 -20.1560 -19.8013 -19.4653 -19.3188 -19.1671
   -19.0121 -18.7766 -18.6280 -18.5471 -18.1334 -18.1022 -17.9164 -17.7202
   -12.3453 -12.1119 -12.0412 -11.9085 -11.6903 -11.6435 -11.5530 -10.9404
   -10.8861 -10.6199 -10.5237  -9.8559  -9.6921  -9.3349  -9.1086  -8.6384
    -8.6214  -8.5491  -8.3917  -8.3776  -8.1580  -8.0927  -8.0731  -8.0378
    -7.6831  -7.6221  -7.4914  -7.4739  -7.3349  -7.1699  -7.0668  -6.8452
    -6.6200  -6.3803  -6.1748  -6.1555  -5.9472  -5.9262  -5.7811  -5.7329
    -5.4506  -5.3842  -5.1713  -5.0437  -4.4074  -4.3641  -4.0738  -3.7543
    -1.4085   0.1274   0.8105   1.0327   1.0651   1.1469   1.2172   1.2933
     1.4257   1.5978   1.6878   1.8014   1.8602   1.9191   1.9516   1.9918
     2.0280   2.1067   2.1986   2.2353   2.2968   2.3475

          k =-0.3333-0.3849 0.0000 ( 59291 PWs)   bands (ev):

   -68.6820 -68.6738 -40.3616 -40.2754 -40.0987 -40.0903 -40.0522 -40.0437
   -21.1114 -20.9138 -20.7171 -20.1558 -19.8031 -19.4635 -19.3144 -19.1702
   -19.0146 -18.7750 -18.6292 -18.5464 -18.1356 -18.0996 -17.9165 -17.7204
   -12.3459 -12.1101 -12.0433 -11.9075 -11.6800 -11.6550 -11.5521 -10.9403
   -10.8858 -10.6193 -10.5244  -9.8566  -9.6922  -9.3344  -9.1094  -8.6406
    -8.6203  -8.5508  -8.3888  -8.3700  -8.1594  -8.0980  -8.0611  -8.0508
    -7.6833  -7.6207  -7.4975  -7.4683  -7.3340  -7.1700  -7.0673  -6.8508
    -6.6182  -6.3752  -6.1635  -6.1572  -5.9556  -5.9253  -5.7812  -5.7393
    -5.4505  -5.3804  -5.1721  -5.0438  -4.4096  -4.3618  -4.0735  -3.7545
    -1.4167   0.1939   0.7970   1.0249   1.0600   1.1659   1.2160   1.3027
     1.4079   1.5185   1.6844   1.7762   1.8469   1.9058   1.9448   2.0041
     2.0601   2.0820   2.1427   2.2166   2.3105   2.3364

          k = 0.5000 0.0962 0.0000 ( 59291 PWs)   bands (ev):

   -68.6820 -68.6738 -40.3616 -40.2755 -40.0987 -40.0903 -40.0522 -40.0437
   -21.1106 -20.9161 -20.7155 -20.1560 -19.8013 -19.4653 -19.3189 -19.1671
   -19.0121 -18.7766 -18.6280 -18.5471 -18.1334 -18.1022 -17.9164 -17.7202
   -12.3453 -12.1120 -12.0412 -11.9085 -11.6903 -11.6434 -11.5530 -10.9404
   -10.8861 -10.6199 -10.5237  -9.8559  -9.6922  -9.3349  -9.1086  -8.6384
    -8.6214  -8.5491  -8.3917  -8.3776  -8.1580  -8.0927  -8.0731  -8.0377
    -7.6831  -7.6221  -7.4915  -7.4739  -7.3349  -7.1700  -7.0667  -6.8452
    -6.6199  -6.3803  -6.1748  -6.1555  -5.9472  -5.9262  -5.7811  -5.7329
    -5.4507  -5.3842  -5.1712  -5.0437  -4.4074  -4.3641  -4.0738  -3.7543
    -1.4085   0.1274   0.8105   1.0327   1.0651   1.1470   1.2171   1.2933
     1.4257   1.5978   1.6878   1.8014   1.8602   1.9191   1.9516   1.9918
     2.0280   2.1067   2.1986   2.2353   2.2969   2.3475

          k =-0.3333 0.3849 0.0000 ( 59291 PWs)   bands (ev):

   -68.6820 -68.6738 -40.3616 -40.2754 -40.0987 -40.0903 -40.0522 -40.0437
   -21.1114 -20.9138 -20.7171 -20.1558 -19.8031 -19.4635 -19.3144 -19.1702
   -19.0146 -18.7750 -18.6292 -18.5464 -18.1356 -18.0996 -17.9165 -17.7204
   -12.3459 -12.1101 -12.0433 -11.9075 -11.6800 -11.6550 -11.5521 -10.9403
   -10.8857 -10.6193 -10.5244  -9.8566  -9.6922  -9.3344  -9.1094  -8.6406
    -8.6203  -8.5507  -8.3888  -8.3700  -8.1594  -8.0980  -8.0611  -8.0508
    -7.6833  -7.6207  -7.4975  -7.4683  -7.3341  -7.1700  -7.0673  -6.8508
    -6.6183  -6.3752  -6.1635  -6.1572  -5.9556  -5.9254  -5.7812  -5.7394
    -5.4504  -5.3804  -5.1722  -5.0438  -4.4096  -4.3618  -4.0735  -3.7545
    -1.4167   0.1939   0.7970   1.0250   1.0600   1.1659   1.2160   1.3027
     1.4079   1.5185   1.6844   1.7762   1.8469   1.9058   1.9448   2.0041
     2.0601   2.0820   2.1427   2.2165   2.3104   2.3364

          k =-0.1667-0.0962 0.0000 ( 59226 PWs)   bands (ev):

   -68.6820 -68.6738 -40.3616 -40.2754 -40.0988 -40.0903 -40.0522 -40.0437
   -21.3102 -20.5320 -20.3440 -20.3349 -19.9861 -19.9765 -19.8033 -18.7268
   -18.7175 -18.3717 -18.3646 -18.3517 -18.2661 -18.2581 -18.0756 -18.0677
   -12.5060 -12.5001 -12.4063 -11.5802 -11.5741 -11.4251 -11.4183 -10.9245
   -10.9216  -9.9279  -9.9241  -9.6735  -9.3730  -9.3705  -9.2281  -9.2258
    -9.0406  -9.0386  -8.9060  -8.3218  -8.3188  -7.8996  -7.8974  -7.8601
    -7.8418  -7.7688  -7.5953  -7.5707  -7.1134  -7.0796  -6.9574  -6.8866
    -6.8835  -6.8414  -6.5300  -6.5259  -6.2558  -5.3307  -5.3031  -5.1411
    -5.0634  -4.7915  -4.7846  -4.7376  -4.6023  -4.5950  -4.3405  -4.3208
    -1.4514   0.3912   0.8148   1.0040   1.1039   1.1641   1.2135   1.3287
     1.4718   1.5361   1.6006   1.6935   1.7821   1.8621   1.8931   1.9381
     1.9810   2.0570   2.1226   2.1344   2.2435   2.3043

          k =-0.0000-0.1925 0.0000 ( 59226 PWs)   bands (ev):

   -68.6820 -68.6738 -40.3615 -40.2754 -40.0988 -40.0903 -40.0522 -40.0437
   -21.3103 -20.5277 -20.3498 -20.3367 -19.9839 -19.9722 -19.8063 -18.7266
   -18.7147 -18.3876 -18.3683 -18.3492 -18.2535 -18.2524 -18.0793 -18.0682
   -12.5077 -12.4986 -12.4062 -11.5822 -11.5735 -11.4246 -11.4160 -10.9259
   -10.9219  -9.9271  -9.9247  -9.6739  -9.3733  -9.3692  -9.2279  -9.2265
    -9.0405  -9.0389  -8.9064  -8.3215  -8.3183  -7.8989  -7.8971  -7.8506
    -7.8379  -7.7703  -7.6103  -7.5797  -7.0981  -7.0757  -6.9562  -6.8883
    -6.8832  -6.8499  -6.5305  -6.5248  -6.2563  -5.3253  -5.3025  -5.1414
    -5.0631  -4.8118  -4.7901  -4.7386  -4.5882  -4.5817  -4.3431  -4.3245
    -1.4585   0.5254   0.7753   0.9857   1.1188   1.1532   1.2087   1.3066
     1.4506   1.4797   1.5228   1.6264   1.7305   1.8460   1.9292   1.9464
     2.0563   2.0736   2.1565   2.1669   2.1855   2.3126

          k = 0.5000-0.8660 0.0000 ( 59292 PWs)   bands (ev):

   -68.6820 -68.6738 -40.3616 -40.2755 -40.0988 -40.0903 -40.0522 -40.0437
   -21.0464 -21.0436 -20.4682 -20.4595 -19.4246 -19.4155 -19.4113 -19.4053
   -18.9891 -18.9861 -18.3201 -18.3182 -18.3157 -18.3087 -17.7919 -17.7839
   -12.0675 -12.0647 -12.0626 -12.0586 -11.8779 -11.8704 -11.3272 -11.3257
   -10.2339 -10.2289 -10.1336 -10.1307 -10.1276 -10.1237  -8.5629  -8.5451
    -8.5447  -8.5434  -8.5418  -8.5325  -7.8630  -7.8613  -7.8571  -7.8554
    -7.8222  -7.8166  -7.7667  -7.7414  -7.4888  -7.4845  -6.6105  -6.6046
    -6.3335  -6.3127  -6.2961  -6.2840  -6.1881  -6.1851  -5.6945  -5.6881
    -5.5440  -5.5398  -4.7078  -4.6980  -4.6890  -4.6864  -3.8750  -3.8557
    -1.4084   0.1258   0.8097   1.0619   1.0733   1.1594   1.2926   1.4254
     1.5159   1.5397   1.5909   1.7024   1.7602   1.8760   1.9217   1.9556
     1.9731   2.0505   2.1563   2.2159   2.3102   2.3384

          k =-1.0000 0.0000 0.0000 ( 59292 PWs)   bands (ev):

   -68.6820 -68.6738 -40.3616 -40.2755 -40.0988 -40.0903 -40.0522 -40.0437
   -21.0694 -21.0181 -20.4723 -20.4595 -19.4208 -19.4170 -19.4165 -19.3974
   -19.0075 -18.9690 -18.3635 -18.3293 -18.2906 -18.2800 -17.7940 -17.7831
   -12.0989 -12.0783 -12.0384 -12.0342 -11.8800 -11.8690 -11.3472 -11.3076
   -10.2395 -10.2366 -10.1299 -10.1293 -10.1224 -10.1221  -8.6021  -8.5708
    -8.5551  -8.5269  -8.5166  -8.4876  -7.8723  -7.8664  -7.8579  -7.8579
    -7.8121  -7.8114  -7.7730  -7.7464  -7.5104  -7.4648  -6.6103  -6.6025
    -6.3323  -6.3115  -6.2975  -6.2716  -6.2048  -6.1708  -5.7194  -5.6675
    -5.5627  -5.5213  -4.7644  -4.7308  -4.6465  -4.6421  -3.8746  -3.8575
    -1.4401   0.4854   0.8317   0.9487   1.0425   1.1416   1.2295   1.2721
     1.3666   1.4932   1.5848   1.6419   1.6708   1.8017   1.8717   1.8925
     2.1321   2.1326   2.1540   2.1813   2.3204   2.3327

     the Fermi energy is    -1.1788 ev

!    total energy              =   -1133.82801829 Ry

     total all-electron energy =     -6753.503721 Ry
     estimated scf accuracy    <       0.00000010 Ry
     smearing contrib. (-TS)   =      -0.00000000 Ry
     internal energy E=F+TS    =   -1133.82801829 Ry

     The total energy is F=E-TS. E is the sum of the following terms:
     one-electron contribution =   -3951.65995345 Ry
     hartree contribution      =    2004.01702541 Ry
     xc contribution           =    -186.01758823 Ry
     ewald contribution        =    1359.20967671 Ry
     DFT-D3 Dispersion         =      -0.13473390 Ry
     one-center paw contrib.   =    -359.24244483 Ry

     total magnetization       =    10.00 Bohr mag/cell
     absolute magnetization    =    10.01 Bohr mag/cell

     convergence has been achieved in  14 iterations

     Writing output data file ./mytmp/Crdimer0.143-0.0.save/
 
     init_run     :     18.46s CPU     19.74s WALL (       1 calls)
     electrons    :    526.66s CPU    574.81s WALL (       1 calls)

     Called by init_run:
     wfcinit      :     13.58s CPU     14.16s WALL (       1 calls)
     potinit      :      1.48s CPU      1.59s WALL (       1 calls)
     hinit0       :      1.51s CPU      1.66s WALL (       1 calls)

     Called by electrons:
     c_bands      :    413.28s CPU    441.20s WALL (      14 calls)
     sum_band     :     80.59s CPU     92.31s WALL (      14 calls)
     v_of_rho     :      7.52s CPU      8.33s WALL (      15 calls)
     newd         :     17.92s CPU     25.17s WALL (      15 calls)
     PAW_pot      :      6.83s CPU      7.45s WALL (      15 calls)
     mix_rho      :      0.98s CPU      1.08s WALL (      14 calls)

     Called by c_bands:
     init_us_2    :      5.00s CPU      5.05s WALL (     870 calls)
     cegterg      :    400.87s CPU    428.69s WALL (     420 calls)

     Called by *egterg:
     cdiaghg      :     25.69s CPU     40.50s WALL (    2776 calls)
     h_psi        :    243.76s CPU    254.14s WALL (    2806 calls)
     s_psi        :     27.21s CPU     27.32s WALL (    2806 calls)
     g_psi        :      0.69s CPU      0.71s WALL (    2356 calls)

     Called by h_psi:
     h_psi:calbec :     29.15s CPU     30.01s WALL (    2806 calls)
     vloc_psi     :    184.32s CPU    193.62s WALL (    2806 calls)
     add_vuspsi   :     27.96s CPU     28.14s WALL (    2806 calls)

     General routines
     calbec       :     38.81s CPU     39.92s WALL (    3226 calls)
     fft          :      9.35s CPU     13.91s WALL (     369 calls)
     ffts         :      0.11s CPU      0.14s WALL (      58 calls)
     fftw         :    190.35s CPU    199.81s WALL (  250452 calls)
     interpolate  :      0.40s CPU      0.46s WALL (      30 calls)
 
     Parallel routines
     fft_scatt_xy :     30.58s CPU     31.85s WALL (  250879 calls)
     fft_scatt_yz :     79.82s CPU     88.77s WALL (  250879 calls)
 
     PWSCF        :   9m 7.15s CPU   9m59.37s WALL

 
   This run was terminated on:  14:50:53   2Apr2021            

=------------------------------------------------------------------------------=
   JOB DONE.
=------------------------------------------------------------------------------=
