
     Program PWSCF v.6.7MaX starts on  2Apr2021 at 14:10: 7 

     This program is part of the open-source Quantum ESPRESSO suite
     for quantum simulation of materials; please cite
         "P. Giannozzi et al., J. Phys.:Condens. Matter 21 395502 (2009);
         "P. Giannozzi et al., J. Phys.:Condens. Matter 29 465901 (2017);
          URL http://www.quantum-espresso.org", 
     in publications or presentations arising from this work. More details at
     http://www.quantum-espresso.org/quote

     Parallel version (MPI), running on    48 processors

     MPI processes distributed on     1 nodes
     R & G space division:  proc/nbgrp/npool/nimage =      48
     Reading input from Crdimer0.1425-0.3.scf.in

     Current dimensions of program PWSCF are:
     Max number of different atomic species (ntypx) = 10
     Max number of k-points (npk) =  40000
     Max angular momentum in pseudopotentials (lmaxx) =  3
     file N.pbe-n-kjpaw_psl.1.0.0.UPF: wavefunction(s)  2S renormalized
     file Cr.pbe-spn-kjpaw_psl.1.0.0.UPF: wavefunction(s)  3S 3P 3D renormalized
     file Cr.pbe-spn-kjpaw_psl.1.0.0.UPF: wavefunction(s)  3S 3P 3D renormalized

     --------------------------------------------
     Parameters for DFT-D3 Dispersion Correction:
     --------------------------------------------
       Reference C6 values for interpolation: 

         atom   Coordination number   C6
         B          0.000           214.36
         B          0.971           150.74
         B          1.944           106.23
         B          2.913            62.89
         B          4.586            56.06
         N          0.000            50.54
         N          0.994            44.25
         N          2.014            39.35
         N          2.990            31.16
         Cr1        0.000          1381.48
         Cr1        1.827           571.38
         Cr1       10.619           306.69
         Cr2        0.000          1381.48
         Cr2        1.827           571.38
         Cr2       10.619           306.69

       Values used:

         atom   Coordination number  R0_AB[au]  C6      C8
         B          3.338            3.039     62.89   2505.93
         B          3.335            3.039     62.89   2506.00
         B          3.337            3.039     62.89   2505.95
         B          3.335            3.039     62.89   2506.01
         B          3.379            3.039     62.86   2504.76
         B          3.335            3.039     62.89   2506.01
         N          3.135            2.478     31.22    688.69
         N          3.136            2.478     31.22    688.68
         N          3.140            2.478     31.22    688.65
         N          3.135            2.478     31.22    688.69
         N          3.154            2.478     31.21    688.53
         N          3.134            2.478     31.22    688.69
         N          3.150            2.478     31.21    688.56
         N          3.134            2.478     31.22    688.70
         N          3.134            2.478     31.22    688.70
         B          3.341            3.039     62.89   2505.87
         B          3.335            3.039     62.89   2506.00
         B          3.335            3.039     62.89   2506.01
         B          3.379            3.039     62.86   2504.76
         B          3.338            3.039     62.89   2505.93
         B          3.341            3.039     62.89   2505.87
         N          3.150            2.478     31.21    688.56
         B          3.336            3.039     62.89   2506.00
         B          3.343            3.039     62.89   2505.81
         B          3.337            3.039     62.89   2505.97
         N          3.134            2.478     31.22    688.69
         N          3.136            2.478     31.22    688.68
         N          3.134            2.478     31.22    688.70
         N          3.134            2.478     31.22    688.70
         N          3.140            2.478     31.22    688.65
         N          3.135            2.478     31.22    688.69
         B          3.337            3.039     62.89   2505.97
         Cr1        0.710            3.252   1331.18 122852.54
         Cr2        0.710            3.252   1331.18 122852.53

         Molecular C6 ( Ry / a.u.^6 ) =     78586.80


     Subspace diagonalization in iterative solution of the eigenvalue problem:
     one sub-group per band group will be used
     scalapack distributed-memory algorithm (size of sub-group:  6*  6 procs)

 
     Parallelization info
     --------------------
     sticks:   dense  smooth     PW     G-vecs:    dense   smooth      PW
     Min         235      98     26                36277     9874    1408
     Max         236      99     27                36282     9883    1425
     Sum       11311    4741   1285              1741401   474235   68095
 


     bravais-lattice index     =            4
     lattice parameter (alat)  =      18.9275  a.u.
     unit-cell volume          =   10553.3021 (a.u.)^3
     number of atoms/cell      =           34
     number of atomic types    =            4
     number of electrons       =       156.00
     number of Kohn-Sham states=           94
     kinetic-energy cutoff     =      48.0000  Ry
     charge density cutoff     =     457.0000  Ry
     scf convergence threshold =      1.0E-07
     mixing beta               =       0.5000
     number of iterations used =            8  plain     mixing
     Exchange-correlation= SLA  PW   PBX  PBC
                           (   1   4   3   4   0   0   0)

     celldm(1)=  18.927497  celldm(2)=   0.000000  celldm(3)=   1.797125
     celldm(4)=   0.000000  celldm(5)=   0.000000  celldm(6)=   0.000000

     crystal axes: (cart. coord. in units of alat)
               a(1) = (   1.000000   0.000000   0.000000 )  
               a(2) = (  -0.500000   0.866025   0.000000 )  
               a(3) = (   0.000000   0.000000   1.797125 )  

     reciprocal axes: (cart. coord. in units 2 pi/alat)
               b(1) = (  1.000000  0.577350  0.000000 )  
               b(2) = (  0.000000  1.154701  0.000000 )  
               b(3) = (  0.000000  0.000000  0.556444 )  


     PseudoPot. # 1 for B  read from file:
     /home/sf05/q-e-qe-6.7MaX-Release/pseudo/B.pbe-n-kjpaw_psl.1.0.0.UPF
     MD5 check sum: d9c678ba5d3b2fd7b74e61139c9288d8
     Pseudo is Projector augmented-wave + core cor, Zval =  3.0
     Generated using "atomic" code by A. Dal Corso  v.5.1.2
     Shape of augmentation charge: PSQ
     Using radial grid of 1059 points,  4 beta functions with: 
                l(1) =   0
                l(2) =   0
                l(3) =   1
                l(4) =   1
     Q(r) pseudized with 0 coefficients 


     PseudoPot. # 2 for N  read from file:
     /home/sf05/q-e-qe-6.7MaX-Release/pseudo/N.pbe-n-kjpaw_psl.1.0.0.UPF
     MD5 check sum: e0e4e94a9c4025c5b51bd7d8793849bd
     Pseudo is Projector augmented-wave + core cor, Zval =  5.0
     Generated using "atomic" code by A. Dal Corso  v.5.1.2
     Shape of augmentation charge: PSQ
     Using radial grid of 1085 points,  4 beta functions with: 
                l(1) =   0
                l(2) =   0
                l(3) =   1
                l(4) =   1
     Q(r) pseudized with 0 coefficients 


     PseudoPot. # 3 for Cr read from file:
     /home/sf05/q-e-qe-6.7MaX-Release/pseudo/Cr.pbe-spn-kjpaw_psl.1.0.0.UPF
     MD5 check sum: 198f1a2427a48552563eee314eba32ba
     Pseudo is Projector augmented-wave + core cor, Zval = 14.0
     Generated using &quot;atomic&quot; code by A. Dal Corso  v.6.3
     Shape of augmentation charge: PSQ
     Using radial grid of 1183 points,  6 beta functions with: 
                l(1) =   0
                l(2) =   0
                l(3) =   1
                l(4) =   1
                l(5) =   2
                l(6) =   2
     Q(r) pseudized with 0 coefficients 


     PseudoPot. # 4 for Cr read from file:
     /home/sf05/q-e-qe-6.7MaX-Release/pseudo/Cr.pbe-spn-kjpaw_psl.1.0.0.UPF
     MD5 check sum: 198f1a2427a48552563eee314eba32ba
     Pseudo is Projector augmented-wave + core cor, Zval = 14.0
     Generated using &quot;atomic&quot; code by A. Dal Corso  v.6.3
     Shape of augmentation charge: PSQ
     Using radial grid of 1183 points,  6 beta functions with: 
                l(1) =   0
                l(2) =   0
                l(3) =   1
                l(4) =   1
                l(5) =   2
                l(6) =   2
     Q(r) pseudized with 0 coefficients 


     atomic species   valence    mass     pseudopotential
        B              3.00    10.81100     B ( 1.00)
        N              5.00    14.00674     N ( 1.00)
        Cr1           14.00    51.99610     Cr( 1.00)
        Cr2           14.00    51.99610     Cr( 1.00)

     Starting magnetic structure 
     atomic species   magnetization
        B            0.000
        N            0.000
        Cr1          1.000
        Cr2          1.000

     No symmetry found



   Cartesian axes

     site n.     atom                  positions (alat units)
         1           B   tau(   1) = (  -0.1250000   0.2165064   0.8985623  )
         2           B   tau(   2) = (   0.3750000   0.6495191   0.8985623  )
         3           B   tau(   3) = (   0.2500000   0.0000000   0.8985623  )
         4           B   tau(   4) = (   0.7500000   0.0000000   0.8985623  )
         5           B   tau(   5) = (   0.1250000   0.2165064   0.8985623  )
         6           B   tau(   6) = (  -0.3750000   0.6495191   0.8985623  )
         7           N   tau(   7) = (   0.7500005   0.2886748   0.8985623  )
         8           N   tau(   8) = (   0.3750005   0.5051812   0.8985623  )
         9           N   tau(   9) = (   0.3750005   0.0721685   0.8985623  )
        10           N   tau(  10) = (   0.6250005   0.0721685   0.8985623  )
        11           N   tau(  11) = (   0.2500005   0.2886748   0.8985623  )
        12           N   tau(  12) = (   0.6250005   0.5051812   0.8985623  )
        13           N   tau(  13) = (   0.0000005   0.2886748   0.8985623  )
        14           N   tau(  14) = (   0.2500005   0.7216875   0.8985623  )
        15           N   tau(  15) = (  -0.2499995   0.7216875   0.8985623  )
        16           B   tau(  16) = (   0.0000000   0.4330127   0.8985623  )
        17           B   tau(  17) = (   0.1250000   0.6495191   0.8985623  )
        18           B   tau(  18) = (  -0.1250000   0.6495191   0.8985623  )
        19           B   tau(  19) = (   0.3750000   0.2165064   0.8985623  )
        20           B   tau(  20) = (   0.6250000   0.2165064   0.8985623  )
        21           B   tau(  21) = (   0.5000000   0.4330127   0.8985623  )
        22           N   tau(  22) = (   0.5000005   0.2886748   0.8985623  )
        23           B   tau(  23) = (  -0.2500000   0.4330127   0.8985623  )
        24           B   tau(  24) = (   0.2500000   0.4330127   0.8985623  )
        25           B   tau(  25) = (   0.5000000   0.0000000   0.8985623  )
        26           N   tau(  26) = (  -0.1249995   0.5051812   0.8985623  )
        27           N   tau(  27) = (   0.1250005   0.5051812   0.8985623  )
        28           N   tau(  28) = (   0.0000005   0.7216875   0.8985623  )
        29           N   tau(  29) = (   0.5000005   0.7216875   0.8985623  )
        30           N   tau(  30) = (   0.1250005   0.0721685   0.8985623  )
        31           N   tau(  31) = (   0.8750005   0.0721685   0.8985623  )
        32           B   tau(  32) = (   0.0000000   0.0000000   0.8985623  )
        33           Cr1 tau(  33) = (   0.3925000   0.2598076   1.2040735  )
        34           Cr2 tau(  34) = (   0.1075000   0.2598076   1.2040735  )

     number of k points=    15  Gaussian smearing, width (Ry)=  0.0000
                       cart. coord. in units 2pi/alat
        k(    1) = (   0.1666667   0.2886751   0.0000000), wk =   0.0740741
        k(    2) = (   0.1666667  -0.4811252   0.0000000), wk =   0.0740741
        k(    3) = (   0.1666667  -0.0962250   0.0000000), wk =   0.0740741
        k(    4) = (  -0.5000000  -0.8660254   0.0000000), wk =   0.0370370
        k(    5) = (  -0.1666667   0.2886751   0.0000000), wk =   0.0740741
        k(    6) = (   0.3333333   0.0000000   0.0000000), wk =   0.0740741
        k(    7) = (  -0.1666667  -0.4811252   0.0000000), wk =   0.0740741
        k(    8) = (   0.5000000  -0.0962250   0.0000000), wk =   0.0740741
        k(    9) = (  -0.3333333  -0.3849002   0.0000000), wk =   0.0740741
        k(   10) = (   0.5000000   0.0962250   0.0000000), wk =   0.0740741
        k(   11) = (  -0.3333333   0.3849002   0.0000000), wk =   0.0740741
        k(   12) = (  -0.1666667  -0.0962250   0.0000000), wk =   0.0740741
        k(   13) = (  -0.0000000  -0.1924501   0.0000000), wk =   0.0740741
        k(   14) = (   0.5000000  -0.8660254   0.0000000), wk =   0.0370370
        k(   15) = (  -1.0000000   0.0000000   0.0000000), wk =   0.0370370

     Dense  grid:  1741401 G-vectors     FFT dimensions: ( 135, 135, 240)

     Smooth grid:   474235 G-vectors     FFT dimensions: (  90,  90, 160)

     Estimated max dynamical RAM per process >     218.62 MB

     Estimated total dynamical RAM >      10.25 GB
     Generating pointlists ...
     new r_m :   0.0595 (alat units)  1.1269 (a.u.) for type    1
     new r_m :   0.0595 (alat units)  1.1269 (a.u.) for type    2
     new r_m :   0.1176 (alat units)  2.2252 (a.u.) for type    3
     new r_m :   0.1176 (alat units)  2.2252 (a.u.) for type    4

     Initial potential from superposition of free atoms

     starting charge  155.99382, renormalised to  156.00000

     negative rho (up, down):  6.710E-03 4.655E-04
     Starting wfcs are  148 randomized atomic wfcs
     Checking if some PAW data can be deallocated... 

     total cpu time spent up to now is       20.7 secs

     Self-consistent Calculation

     iteration #  1     ecut=    48.00 Ry     beta= 0.50
     Davidson diagonalization with overlap
     ethr =  1.00E-02,  avg # of iterations =  2.8

     negative rho (up, down):  4.891E-03 2.908E-03

     total cpu time spent up to now is       63.9 secs

     total energy              =   -1130.72894496 Ry
     estimated scf accuracy    <      11.38627058 Ry

     total magnetization       =    12.00 Bohr mag/cell
     absolute magnetization    =    12.12 Bohr mag/cell

     iteration #  2     ecut=    48.00 Ry     beta= 0.50
     Davidson diagonalization with overlap
     ethr =  7.30E-03,  avg # of iterations =  2.8

     negative rho (up, down):  8.446E-03 7.500E-03

     total cpu time spent up to now is      104.4 secs

     total energy              =   -1132.99794128 Ry
     estimated scf accuracy    <       3.59394726 Ry

     total magnetization       =    10.00 Bohr mag/cell
     absolute magnetization    =    10.12 Bohr mag/cell

     iteration #  3     ecut=    48.00 Ry     beta= 0.50
     Davidson diagonalization with overlap
     ethr =  2.30E-03,  avg # of iterations =  6.6

     negative rho (up, down):  3.745E-03 3.668E-03

     total cpu time spent up to now is      145.0 secs

     total energy              =   -1133.57624973 Ry
     estimated scf accuracy    <       0.77414243 Ry

     total magnetization       =    12.00 Bohr mag/cell
     absolute magnetization    =    12.06 Bohr mag/cell

     iteration #  4     ecut=    48.00 Ry     beta= 0.50
     Davidson diagonalization with overlap
     ethr =  4.96E-04,  avg # of iterations =  7.1

     negative rho (up, down):  7.014E-03 7.822E-03

     total cpu time spent up to now is      185.4 secs

     total energy              =   -1133.77671188 Ry
     estimated scf accuracy    <       0.50060510 Ry

     total magnetization       =    10.00 Bohr mag/cell
     absolute magnetization    =    10.02 Bohr mag/cell

     iteration #  5     ecut=    48.00 Ry     beta= 0.50
     Davidson diagonalization with overlap
     ethr =  3.21E-04,  avg # of iterations =  6.8

     negative rho (up, down):  4.644E-03 4.885E-03

     total cpu time spent up to now is      226.6 secs

     total energy              =   -1133.81560073 Ry
     estimated scf accuracy    <       0.03110392 Ry

     total magnetization       =    10.00 Bohr mag/cell
     absolute magnetization    =    10.03 Bohr mag/cell

     iteration #  6     ecut=    48.00 Ry     beta= 0.50
     Davidson diagonalization with overlap
     c_bands:  1 eigenvalues not converged
     c_bands:  1 eigenvalues not converged
     ethr =  1.99E-05,  avg # of iterations = 12.6

     negative rho (up, down):  3.844E-03 3.926E-03

     total cpu time spent up to now is      280.3 secs

     total energy              =   -1133.81940597 Ry
     estimated scf accuracy    <       0.04723042 Ry

     total magnetization       =    10.00 Bohr mag/cell
     absolute magnetization    =    10.02 Bohr mag/cell

     iteration #  7     ecut=    48.00 Ry     beta= 0.50
     Davidson diagonalization with overlap
     ethr =  1.99E-05,  avg # of iterations =  6.3

     negative rho (up, down):  3.358E-03 3.801E-03

     total cpu time spent up to now is      321.8 secs

     total energy              =   -1133.82712725 Ry
     estimated scf accuracy    <       0.00176256 Ry

     total magnetization       =    10.00 Bohr mag/cell
     absolute magnetization    =    10.02 Bohr mag/cell

     iteration #  8     ecut=    48.00 Ry     beta= 0.50
     Davidson diagonalization with overlap
     ethr =  1.13E-06,  avg # of iterations =  8.6

     negative rho (up, down):  3.232E-03 3.740E-03

     total cpu time spent up to now is      365.8 secs

     total energy              =   -1133.82784361 Ry
     estimated scf accuracy    <       0.00024308 Ry

     total magnetization       =    10.00 Bohr mag/cell
     absolute magnetization    =    10.01 Bohr mag/cell

     iteration #  9     ecut=    48.00 Ry     beta= 0.50
     Davidson diagonalization with overlap
     ethr =  1.56E-07,  avg # of iterations =  4.3

     negative rho (up, down):  3.161E-03 3.735E-03

     total cpu time spent up to now is      402.9 secs

     total energy              =   -1133.82799659 Ry
     estimated scf accuracy    <       0.00008291 Ry

     total magnetization       =    10.00 Bohr mag/cell
     absolute magnetization    =    10.01 Bohr mag/cell

     iteration # 10     ecut=    48.00 Ry     beta= 0.50
     Davidson diagonalization with overlap
     ethr =  5.31E-08,  avg # of iterations =  5.1

     negative rho (up, down):  3.153E-03 3.750E-03

     total cpu time spent up to now is      446.3 secs

     total energy              =   -1133.82806582 Ry
     estimated scf accuracy    <       0.00003194 Ry

     total magnetization       =    10.00 Bohr mag/cell
     absolute magnetization    =    10.01 Bohr mag/cell

     iteration # 11     ecut=    48.00 Ry     beta= 0.50
     Davidson diagonalization with overlap
     ethr =  2.05E-08,  avg # of iterations =  3.9

     negative rho (up, down):  3.139E-03 3.761E-03

     total cpu time spent up to now is      481.7 secs

     total energy              =   -1133.82808994 Ry
     estimated scf accuracy    <       0.00000923 Ry

     total magnetization       =    10.00 Bohr mag/cell
     absolute magnetization    =    10.01 Bohr mag/cell

     iteration # 12     ecut=    48.00 Ry     beta= 0.50
     Davidson diagonalization with overlap
     ethr =  5.92E-09,  avg # of iterations =  4.6

     negative rho (up, down):  3.133E-03 3.773E-03

     total cpu time spent up to now is      517.9 secs

     total energy              =   -1133.82809737 Ry
     estimated scf accuracy    <       0.00000115 Ry

     total magnetization       =    10.00 Bohr mag/cell
     absolute magnetization    =    10.01 Bohr mag/cell

     iteration # 13     ecut=    48.00 Ry     beta= 0.50
     Davidson diagonalization with overlap
     ethr =  7.35E-10,  avg # of iterations =  4.8

     negative rho (up, down):  3.129E-03 3.778E-03

     total cpu time spent up to now is      556.7 secs

     total energy              =   -1133.82810037 Ry
     estimated scf accuracy    <       0.00000023 Ry

     total magnetization       =    10.00 Bohr mag/cell
     absolute magnetization    =    10.01 Bohr mag/cell

     iteration # 14     ecut=    48.00 Ry     beta= 0.50
     Davidson diagonalization with overlap
     ethr =  1.48E-10,  avg # of iterations =  4.9

     negative rho (up, down):  3.127E-03 3.779E-03
 
     Magnetic moment per site:
     atom:    1    charge:    0.8810    magn:    0.0007    constr:    0.0000
     atom:    2    charge:    0.8803    magn:    0.0002    constr:    0.0000
     atom:    3    charge:    0.8798    magn:    0.0004    constr:    0.0000
     atom:    4    charge:    0.8805    magn:    0.0001    constr:    0.0000
     atom:    5    charge:    0.8806    magn:    0.0004    constr:    0.0000
     atom:    6    charge:    0.8803    magn:    0.0001    constr:    0.0000
     atom:    7    charge:    2.8610    magn:    0.0002    constr:    0.0000
     atom:    8    charge:    2.8607    magn:    0.0018    constr:    0.0000
     atom:    9    charge:    2.8606    magn:    0.0046    constr:    0.0000
     atom:   10    charge:    2.8609    magn:    0.0008    constr:    0.0000
     atom:   11    charge:    2.8604    magn:    0.0078    constr:    0.0000
     atom:   12    charge:    2.8610    magn:    0.0003    constr:    0.0000
     atom:   13    charge:    2.8596    magn:    0.0052    constr:    0.0000
     atom:   14    charge:    2.8599    magn:    0.0002    constr:    0.0000
     atom:   15    charge:    2.8599    magn:    0.0000    constr:    0.0000
     atom:   16    charge:    0.8802    magn:    0.0004    constr:    0.0000
     atom:   17    charge:    0.8799    magn:    0.0002    constr:    0.0000
     atom:   18    charge:    0.8800    magn:    0.0001    constr:    0.0000
     atom:   19    charge:    0.8801    magn:    0.0004    constr:    0.0000
     atom:   20    charge:    0.8804    magn:    0.0007    constr:    0.0000
     atom:   21    charge:    0.8799    magn:    0.0004    constr:    0.0000
     atom:   22    charge:    2.8609    magn:    0.0052    constr:    0.0000
     atom:   23    charge:    0.8803    magn:    0.0002    constr:    0.0000
     atom:   24    charge:    0.8792    magn:    0.0003    constr:    0.0000
     atom:   25    charge:    0.8800    magn:    0.0003    constr:    0.0000
     atom:   26    charge:    2.8599    magn:    0.0003    constr:    0.0000
     atom:   27    charge:    2.8596    magn:    0.0018    constr:    0.0000
     atom:   28    charge:    2.8598    magn:    0.0002    constr:    0.0000
     atom:   29    charge:    2.8596    magn:    0.0002    constr:    0.0000
     atom:   30    charge:    2.8592    magn:    0.0046    constr:    0.0000
     atom:   31    charge:    2.8596    magn:    0.0008    constr:    0.0000
     atom:   32    charge:    0.8803    magn:    0.0003    constr:    0.0000
     atom:   33    charge:   12.5376    magn:    4.2518    constr:    0.0000
     atom:   34    charge:   12.5376    magn:    4.2518    constr:    0.0000

     total cpu time spent up to now is      596.6 secs

     End of self-consistent calculation

 ------ SPIN UP ------------


          k = 0.1667 0.2887 0.0000 ( 59267 PWs)   bands (ev):

   -72.8910 -72.8835 -44.4340 -44.3595 -44.2949 -44.2876 -44.2684 -44.2606
   -21.2475 -20.6630 -20.6544 -20.1107 -20.0909 -19.5900 -19.5809 -19.0997
   -18.6997 -18.6902 -18.4630 -18.4452 -18.1947 -18.0861 -18.0768 -17.8494
   -12.4853 -12.2106 -12.1983 -11.8223 -11.8169 -11.6583 -11.1936 -11.1884
   -10.3923 -10.3685 -10.1188 -10.1142  -9.5899  -9.5881  -8.8437  -8.8251
    -8.8201  -8.7687  -8.7592  -8.5965  -8.1971  -8.0517  -8.0193  -7.8312
    -7.8254  -7.4386  -7.4372  -7.2899  -7.2537  -7.2094  -7.2055  -6.9656
    -6.9501  -6.5647  -6.5418  -6.1542  -6.1525  -5.8723  -5.4184  -5.2946
    -5.2780  -5.2003  -4.9218  -4.8930  -4.5064  -4.3575  -4.3405  -3.9799
    -2.8532  -2.0353  -1.9618  -1.8393  -1.6615  -1.6031  -1.5019  -1.4871
    -1.4456  -1.3828  -1.3242  -0.7257   0.6568   0.9763   1.0562   1.1452
     1.2767   1.4628   1.4941   1.5869   1.6053   1.7719

          k = 0.1667-0.4811 0.0000 ( 59291 PWs)   bands (ev):

   -72.8910 -72.8835 -44.4341 -44.3594 -44.2949 -44.2877 -44.2684 -44.2606
   -21.1175 -20.9120 -20.7235 -20.1614 -19.8047 -19.4669 -19.3169 -19.1755
   -19.0142 -18.7797 -18.6419 -18.5432 -18.1493 -18.0884 -17.9224 -17.7236
   -12.3496 -12.1144 -12.0444 -11.9068 -11.6809 -11.6579 -11.5530 -10.9418
   -10.8912 -10.6249 -10.5229  -9.8607  -9.6938  -9.3362  -9.1111  -8.6708
    -8.6233  -8.5537  -8.3890  -8.3669  -8.1616  -8.1258  -8.0639  -8.0494
    -7.6890  -7.6234  -7.4948  -7.4737  -7.3583  -7.1713  -7.0675  -6.8622
    -6.6220  -6.3896  -6.1782  -6.1577  -5.9755  -5.9290  -5.7838  -5.7446
    -5.4514  -5.3996  -5.2114  -5.0408  -4.4452  -4.3470  -4.0907  -3.7674
    -2.8503  -2.0352  -1.9614  -1.8359  -1.6603  -1.6034  -1.5049  -1.4880
    -1.4466  -1.3824  -1.3241  -0.7294   0.5713   0.9657   1.0519   1.1187
     1.2030   1.2572   1.3566   1.8426   1.8998   2.1374

          k = 0.1667-0.0962 0.0000 ( 59226 PWs)   bands (ev):

   -72.8910 -72.8835 -44.4340 -44.3595 -44.2949 -44.2876 -44.2684 -44.2606
   -21.3139 -20.5368 -20.3458 -20.3393 -19.9878 -19.9821 -19.8054 -18.7286
   -18.7244 -18.3792 -18.3627 -18.3586 -18.2731 -18.2557 -18.0760 -18.0718
   -12.5110 -12.5004 -12.4081 -11.5812 -11.5775 -11.4318 -11.4152 -10.9264
   -10.9240  -9.9292  -9.9274  -9.6766  -9.3796  -9.3691  -9.2305  -9.2282
    -9.0420  -9.0405  -8.9251  -8.3234  -8.3220  -7.9038  -7.8974  -7.8840
    -7.8453  -7.7703  -7.6117  -7.5820  -7.1368  -7.0930  -6.9596  -6.8877
    -6.8858  -6.8513  -6.5304  -6.5290  -6.2574  -5.3512  -5.3194  -5.1434
    -5.0653  -4.8139  -4.7892  -4.7582  -4.6240  -4.5977  -4.3529  -4.3320
    -2.8562  -2.0353  -1.9621  -1.8426  -1.6640  -1.6028  -1.4993  -1.4862
    -1.4445  -1.3832  -1.3243  -0.7217   0.7523   0.9429   1.0192   1.1693
     1.2876   1.3269   1.5754   1.5865   1.6761   1.9110

          k =-0.5000-0.8660 0.0000 ( 59292 PWs)   bands (ev):

   -72.8910 -72.8835 -44.4341 -44.3595 -44.2949 -44.2877 -44.2684 -44.2606
   -21.0534 -21.0442 -20.4695 -20.4646 -19.4294 -19.4270 -19.4101 -19.4051
   -18.9948 -18.9863 -18.3301 -18.3259 -18.3184 -18.3018 -17.7921 -17.7895
   -12.0728 -12.0703 -12.0662 -12.0532 -11.8770 -11.8748 -11.3310 -11.3266
   -10.2348 -10.2340 -10.1362 -10.1313 -10.1294 -10.1262  -8.5906  -8.5527
    -8.5485  -8.5470  -8.5452  -8.5358  -7.8656  -7.8627  -7.8610  -7.8592
    -7.8218  -7.8190  -7.7823  -7.7542  -7.4931  -7.4830  -6.6104  -6.6094
    -6.3622  -6.3292  -6.3183  -6.2874  -6.1924  -6.1849  -5.7089  -5.7009
    -5.5481  -5.5392  -4.7274  -4.7185  -4.7056  -4.6871  -3.8862  -3.8695
    -2.8378  -2.0330  -1.9610  -1.8382  -1.6610  -1.6039  -1.5043  -1.4874
    -1.4532  -1.3869  -1.3249  -0.8501   0.7441   1.0627   1.0865   1.2123
     1.4499   1.5330   1.5671   1.6067   1.6268   1.7645

          k =-0.1667 0.2887 0.0000 ( 59267 PWs)   bands (ev):

   -72.8910 -72.8835 -44.4340 -44.3595 -44.2949 -44.2876 -44.2684 -44.2606
   -21.2475 -20.6630 -20.6544 -20.1107 -20.0909 -19.5901 -19.5808 -19.0997
   -18.6997 -18.6901 -18.4630 -18.4452 -18.1947 -18.0861 -18.0767 -17.8494
   -12.4853 -12.2106 -12.1983 -11.8223 -11.8169 -11.6584 -11.1936 -11.1883
   -10.3923 -10.3684 -10.1188 -10.1141  -9.5899  -9.5880  -8.8437  -8.8251
    -8.8201  -8.7688  -8.7592  -8.5964  -8.1972  -8.0516  -8.0194  -7.8312
    -7.8254  -7.4386  -7.4372  -7.2899  -7.2537  -7.2094  -7.2054  -6.9656
    -6.9502  -6.5647  -6.5418  -6.1543  -6.1524  -5.8723  -5.4185  -5.2947
    -5.2780  -5.2002  -4.9218  -4.8930  -4.5064  -4.3575  -4.3405  -3.9799
    -2.8532  -2.0353  -1.9618  -1.8393  -1.6615  -1.6031  -1.5019  -1.4871
    -1.4456  -1.3828  -1.3242  -0.7257   0.6568   0.9763   1.0562   1.1452
     1.2766   1.4627   1.4941   1.5868   1.6053   1.7718

          k = 0.3333 0.0000 0.0000 ( 59267 PWs)   bands (ev):

   -72.8910 -72.8835 -44.4340 -44.3595 -44.2950 -44.2876 -44.2684 -44.2606
   -21.2470 -20.6879 -20.6293 -20.1112 -20.0890 -19.6150 -19.5577 -19.1019
   -18.7160 -18.6686 -18.4661 -18.4441 -18.1905 -18.1088 -18.0606 -17.8485
   -12.4837 -12.2144 -12.1954 -11.8316 -11.8105 -11.6570 -11.2102 -11.1708
   -10.3924 -10.3670 -10.1335 -10.1010  -9.5961  -9.5803  -8.8440  -8.8283
    -8.8136  -8.7892  -8.7402  -8.5969  -8.1994  -8.1065  -7.9635  -7.8293
    -7.8248  -7.4461  -7.4299  -7.3020  -7.2356  -7.2182  -7.1959  -6.9682
    -6.9495  -6.6224  -6.4917  -6.1569  -6.1489  -5.8797  -5.4188  -5.3175
    -5.2430  -5.2004  -4.9309  -4.8865  -4.4980  -4.3903  -4.3212  -3.9784
    -2.8450  -2.0337  -1.9616  -1.8409  -1.6633  -1.6034  -1.5014  -1.4865
    -1.4490  -1.3858  -1.3246  -0.8095   0.7670   1.0679   1.2061   1.2448
     1.2607   1.4606   1.5119   1.5563   1.5939   1.7376

          k =-0.1667-0.4811 0.0000 ( 59291 PWs)   bands (ev):

   -72.8910 -72.8835 -44.4341 -44.3594 -44.2949 -44.2877 -44.2684 -44.2606
   -21.1175 -20.9120 -20.7235 -20.1614 -19.8047 -19.4669 -19.3169 -19.1755
   -19.0142 -18.7797 -18.6419 -18.5432 -18.1493 -18.0884 -17.9224 -17.7236
   -12.3496 -12.1144 -12.0444 -11.9068 -11.6808 -11.6579 -11.5530 -10.9418
   -10.8912 -10.6249 -10.5228  -9.8607  -9.6938  -9.3362  -9.1112  -8.6708
    -8.6232  -8.5537  -8.3889  -8.3669  -8.1615  -8.1258  -8.0639  -8.0495
    -7.6890  -7.6235  -7.4947  -7.4737  -7.3583  -7.1713  -7.0674  -6.8622
    -6.6221  -6.3896  -6.1782  -6.1577  -5.9755  -5.9290  -5.7838  -5.7446
    -5.4514  -5.3996  -5.2113  -5.0408  -4.4452  -4.3470  -4.0907  -3.7674
    -2.8503  -2.0352  -1.9614  -1.8359  -1.6603  -1.6034  -1.5049  -1.4880
    -1.4466  -1.3824  -1.3241  -0.7294   0.5713   0.9657   1.0519   1.1187
     1.2030   1.2572   1.3566   1.8427   1.8998   2.1374

          k = 0.5000-0.0962 0.0000 ( 59291 PWs)   bands (ev):

   -72.8910 -72.8835 -44.4340 -44.3595 -44.2949 -44.2876 -44.2684 -44.2607
   -21.1144 -20.9205 -20.7179 -20.1596 -19.8047 -19.4684 -19.3241 -19.1696
   -19.0155 -18.7799 -18.6314 -18.5500 -18.1376 -18.1053 -17.9186 -17.7234
   -12.3470 -12.1153 -12.0426 -11.9116 -11.6943 -11.6432 -11.5547 -10.9433
   -10.8877 -10.6222 -10.5260  -9.8589  -9.6941  -9.3370  -9.1106  -8.6594
    -8.6236  -8.5511  -8.4043  -8.3913  -8.1595  -8.1032  -8.0767  -8.0374
    -7.6847  -7.6241  -7.4938  -7.4751  -7.3521  -7.1721  -7.0687  -6.8605
    -6.6226  -6.3983  -6.1986  -6.1573  -5.9570  -5.9289  -5.7830  -5.7487
    -5.4524  -5.3996  -5.1856  -5.0570  -4.4210  -4.3796  -4.0852  -3.7670
    -2.8379  -2.0330  -1.9610  -1.8382  -1.6617  -1.6039  -1.5043  -1.4875
    -1.4531  -1.3869  -1.3249  -0.8499   0.7267   1.0486   1.1044   1.2134
     1.2879   1.3575   1.4911   1.7561   1.8392   1.8689

          k =-0.3333-0.3849 0.0000 ( 59291 PWs)   bands (ev):

   -72.8910 -72.8835 -44.4340 -44.3595 -44.2949 -44.2877 -44.2684 -44.2607
   -21.1155 -20.9176 -20.7200 -20.1594 -19.8067 -19.4667 -19.3187 -19.1730
   -19.0189 -18.7777 -18.6328 -18.5494 -18.1397 -18.1025 -17.9188 -17.7236
   -12.3488 -12.1118 -12.0457 -11.9091 -11.6824 -11.6566 -11.5543 -10.9429
   -10.8883 -10.6217 -10.5261  -9.8587  -9.6941  -9.3375  -9.1119  -8.6626
    -8.6225  -8.5531  -8.3910  -8.3888  -8.1609  -8.1119  -8.0640  -8.0519
    -7.6853  -7.6223  -7.5004  -7.4686  -7.3504  -7.1721  -7.0693  -6.8695
    -6.6208  -6.3907  -6.1806  -6.1597  -5.9698  -5.9272  -5.7830  -5.7595
    -5.4524  -5.3925  -5.1869  -5.0581  -4.4235  -4.3764  -4.0848  -3.7673
    -2.8421  -2.0338  -1.9611  -1.8374  -1.6608  -1.6037  -1.5046  -1.4876
    -1.4512  -1.3854  -1.3247  -0.8131   0.6756   1.0370   1.1130   1.2081
     1.2256   1.3177   1.3745   1.8210   1.8909   1.9246

          k = 0.5000 0.0962 0.0000 ( 59291 PWs)   bands (ev):

   -72.8910 -72.8835 -44.4340 -44.3595 -44.2949 -44.2876 -44.2684 -44.2607
   -21.1144 -20.9205 -20.7179 -20.1596 -19.8047 -19.4684 -19.3241 -19.1696
   -19.0155 -18.7799 -18.6314 -18.5500 -18.1376 -18.1053 -17.9186 -17.7234
   -12.3470 -12.1153 -12.0426 -11.9116 -11.6943 -11.6432 -11.5547 -10.9433
   -10.8877 -10.6222 -10.5260  -9.8589  -9.6941  -9.3370  -9.1106  -8.6594
    -8.6236  -8.5512  -8.4043  -8.3913  -8.1595  -8.1032  -8.0767  -8.0374
    -7.6847  -7.6240  -7.4938  -7.4752  -7.3521  -7.1722  -7.0687  -6.8605
    -6.6226  -6.3983  -6.1986  -6.1572  -5.9570  -5.9288  -5.7830  -5.7487
    -5.4525  -5.3996  -5.1856  -5.0570  -4.4210  -4.3796  -4.0853  -3.7670
    -2.8379  -2.0330  -1.9610  -1.8382  -1.6617  -1.6039  -1.5043  -1.4875
    -1.4531  -1.3869  -1.3249  -0.8499   0.7267   1.0487   1.1044   1.2134
     1.2879   1.3575   1.4911   1.7561   1.8391   1.8689

          k =-0.3333 0.3849 0.0000 ( 59291 PWs)   bands (ev):

   -72.8910 -72.8835 -44.4340 -44.3595 -44.2949 -44.2877 -44.2684 -44.2607
   -21.1155 -20.9176 -20.7200 -20.1594 -19.8067 -19.4667 -19.3187 -19.1730
   -19.0189 -18.7778 -18.6328 -18.5494 -18.1397 -18.1025 -17.9188 -17.7236
   -12.3488 -12.1118 -12.0458 -11.9091 -11.6825 -11.6566 -11.5542 -10.9429
   -10.8883 -10.6217 -10.5261  -9.8587  -9.6940  -9.3375  -9.1119  -8.6626
    -8.6226  -8.5530  -8.3910  -8.3888  -8.1610  -8.1119  -8.0640  -8.0519
    -7.6852  -7.6223  -7.5004  -7.4686  -7.3504  -7.1721  -7.0694  -6.8695
    -6.6209  -6.3907  -6.1806  -6.1597  -5.9698  -5.9273  -5.7829  -5.7596
    -5.4523  -5.3924  -5.1869  -5.0581  -4.4236  -4.3764  -4.0848  -3.7673
    -2.8421  -2.0338  -1.9611  -1.8374  -1.6608  -1.6037  -1.5046  -1.4876
    -1.4512  -1.3854  -1.3247  -0.8131   0.6756   1.0370   1.1130   1.2081
     1.2256   1.3177   1.3745   1.8210   1.8909   1.9247

          k =-0.1667-0.0962 0.0000 ( 59226 PWs)   bands (ev):

   -72.8910 -72.8835 -44.4340 -44.3595 -44.2949 -44.2876 -44.2684 -44.2606
   -21.3139 -20.5368 -20.3458 -20.3393 -19.9878 -19.9821 -19.8054 -18.7286
   -18.7244 -18.3792 -18.3627 -18.3586 -18.2731 -18.2556 -18.0760 -18.0718
   -12.5110 -12.5004 -12.4081 -11.5812 -11.5774 -11.4318 -11.4152 -10.9264
   -10.9240  -9.9292  -9.9274  -9.6765  -9.3796  -9.3690  -9.2305  -9.2283
    -9.0420  -9.0405  -8.9251  -8.3234  -8.3220  -7.9038  -7.8974  -7.8840
    -7.8452  -7.7703  -7.6117  -7.5820  -7.1368  -7.0930  -6.9596  -6.8877
    -6.8858  -6.8513  -6.5304  -6.5289  -6.2575  -5.3512  -5.3194  -5.1433
    -5.0654  -4.8139  -4.7892  -4.7582  -4.6240  -4.5977  -4.3529  -4.3320
    -2.8562  -2.0353  -1.9621  -1.8426  -1.6640  -1.6028  -1.4993  -1.4862
    -1.4445  -1.3832  -1.3243  -0.7217   0.7523   0.9429   1.0192   1.1692
     1.2876   1.3269   1.5754   1.5865   1.6761   1.9109

          k =-0.0000-0.1925 0.0000 ( 59226 PWs)   bands (ev):

   -72.8910 -72.8835 -44.4340 -44.3594 -44.2949 -44.2876 -44.2684 -44.2606
   -21.3140 -20.5311 -20.3601 -20.3345 -19.9904 -19.9713 -19.8096 -18.7351
   -18.7134 -18.4079 -18.3610 -18.3508 -18.2545 -18.2537 -18.0864 -18.0672
   -12.5152 -12.4971 -12.4072 -11.5872 -11.5715 -11.4323 -11.4132 -10.9287
   -10.9232  -9.9335  -9.9239  -9.6763  -9.3777  -9.3681  -9.2325  -9.2279
    -9.0418  -9.0415  -8.9257  -8.3260  -8.3189  -7.9037  -7.8970  -7.8634
    -7.8427  -7.7723  -7.6419  -7.5894  -7.1163  -7.0838  -6.9581  -6.8922
    -6.8830  -6.8651  -6.5341  -6.5242  -6.2582  -5.3487  -5.3109  -5.1434
    -5.0651  -4.8605  -4.7910  -4.7485  -4.5938  -4.5888  -4.3643  -4.3317
    -2.8602  -2.0361  -1.9622  -1.8418  -1.6632  -1.6026  -1.4996  -1.4866
    -1.4430  -1.3817  -1.3241  -0.6728   0.6785   0.8562   1.0129   1.1437
     1.2190   1.3993   1.5536   1.5871   1.7073   1.9559

          k = 0.5000-0.8660 0.0000 ( 59292 PWs)   bands (ev):

   -72.8910 -72.8835 -44.4341 -44.3595 -44.2949 -44.2877 -44.2684 -44.2606
   -21.0535 -21.0442 -20.4695 -20.4646 -19.4293 -19.4270 -19.4101 -19.4051
   -18.9949 -18.9862 -18.3301 -18.3259 -18.3185 -18.3018 -17.7921 -17.7895
   -12.0729 -12.0703 -12.0664 -12.0531 -11.8770 -11.8748 -11.3310 -11.3265
   -10.2349 -10.2340 -10.1362 -10.1313 -10.1294 -10.1262  -8.5906  -8.5527
    -8.5486  -8.5470  -8.5451  -8.5357  -7.8656  -7.8627  -7.8610  -7.8591
    -7.8218  -7.8190  -7.7823  -7.7542  -7.4932  -7.4830  -6.6103  -6.6093
    -6.3622  -6.3293  -6.3183  -6.2874  -6.1924  -6.1848  -5.7090  -5.7010
    -5.5483  -5.5393  -4.7273  -4.7185  -4.7056  -4.6871  -3.8863  -3.8696
    -2.8378  -2.0330  -1.9610  -1.8382  -1.6610  -1.6039  -1.5043  -1.4874
    -1.4532  -1.3869  -1.3249  -0.8501   0.7440   1.0627   1.0865   1.2123
     1.4499   1.5330   1.5670   1.6067   1.6269   1.7647

          k =-1.0000 0.0000 0.0000 ( 59292 PWs)   bands (ev):

   -72.8910 -72.8835 -44.4341 -44.3595 -44.2949 -44.2876 -44.2684 -44.2606
   -21.0766 -21.0178 -20.4815 -20.4576 -19.4456 -19.4080 -19.4076 -19.4033
   -19.0161 -18.9681 -18.3812 -18.3148 -18.3031 -18.2770 -17.8019 -17.7821
   -12.1164 -12.0682 -12.0445 -12.0309 -11.8853 -11.8661 -11.3507 -11.3075
   -10.2544 -10.2326 -10.1339 -10.1305 -10.1241 -10.1196  -8.6356  -8.5803
    -8.5504  -8.5322  -8.5140  -8.4894  -7.8831  -7.8731  -7.8613  -7.8504
    -7.8164  -7.8117  -7.7969  -7.7553  -7.5151  -7.4638  -6.6150  -6.6010
    -6.3782  -6.3211  -6.2955  -6.2795  -6.2094  -6.1706  -5.7481  -5.6712
    -5.5676  -5.5204  -4.8165  -4.7236  -4.6632  -4.6374  -3.8960  -3.8632
    -2.8544  -2.0358  -1.9616  -1.8352  -1.6600  -1.6033  -1.5050  -1.4881
    -1.4439  -1.3810  -1.3237  -0.6812   0.5303   0.8460   1.0489   1.0932
     1.2240   1.4306   1.5736   1.6199   1.6382   1.9331

 ------ SPIN DOWN ----------


          k = 0.1667 0.2887 0.0000 ( 59267 PWs)   bands (ev):

   -68.6909 -68.6823 -40.3579 -40.2694 -40.1182 -40.1094 -40.0650 -40.0556
   -21.2434 -20.6600 -20.6493 -20.1062 -20.0872 -19.5873 -19.5756 -19.0956
   -18.6963 -18.6844 -18.4586 -18.4413 -18.1899 -18.0828 -18.0722 -17.8451
   -12.4823 -12.2074 -12.1957 -11.8199 -11.8143 -11.6561 -11.1913 -11.1847
   -10.3892 -10.3653 -10.1165 -10.1104  -9.5874  -9.5849  -8.8297  -8.8168
    -8.8149  -8.7669  -8.7559  -8.5938  -8.1947  -8.0258  -8.0094  -7.8286
    -7.8230  -7.4356  -7.4333  -7.2696  -7.2396  -7.2074  -7.2024  -6.9628
    -6.9478  -6.5420  -6.5334  -6.1516  -6.1497  -5.8557  -5.4153  -5.2750
    -5.2619  -5.1975  -4.9060  -4.8802  -4.4897  -4.3429  -4.3292  -3.9656
    -1.4332   0.3813   0.9268   1.0477   1.0946   1.1883   1.2472   1.3410
     1.3789   1.4948   1.5118   1.5723   1.6367   1.7010   1.8612   2.0175
     2.0349   2.1126   2.1381   2.1886   2.2456   2.2993

          k = 0.1667-0.4811 0.0000 ( 59291 PWs)   bands (ev):

   -68.6909 -68.6823 -40.3579 -40.2694 -40.1182 -40.1094 -40.0650 -40.0556
   -21.1130 -20.9087 -20.7192 -20.1571 -19.8007 -19.4629 -19.3130 -19.1710
   -19.0102 -18.7757 -18.6363 -18.5399 -18.1435 -18.0859 -17.9178 -17.7192
   -12.3465 -12.1114 -12.0420 -11.9042 -11.6790 -11.6549 -11.5502 -10.9389
   -10.8878 -10.6214 -10.5203  -9.8573  -9.6910  -9.3331  -9.1084  -8.6460
    -8.6206  -8.5503  -8.3866  -8.3548  -8.1589  -8.1073  -8.0617  -8.0466
    -7.6860  -7.6208  -7.4921  -7.4712  -7.3395  -7.1680  -7.0650  -6.8454
    -6.6187  -6.3738  -6.1614  -6.1551  -5.9587  -5.9258  -5.7810  -5.7294
    -5.4487  -5.3841  -5.1885  -5.0314  -4.4248  -4.3399  -4.0759  -3.7536
    -1.4239   0.3700   0.8997   0.9961   1.0792   1.1420   1.1792   1.2470
     1.2980   1.4604   1.5165   1.7432   1.7662   1.8033   1.8900   2.0853
     2.1153   2.1361   2.1695   2.2003   2.2725   2.2956

          k = 0.1667-0.0962 0.0000 ( 59226 PWs)   bands (ev):

   -68.6909 -68.6823 -40.3579 -40.2694 -40.1182 -40.1094 -40.0650 -40.0556
   -21.3098 -20.5322 -20.3418 -20.3358 -19.9830 -19.9783 -19.8018 -18.7237
   -18.7201 -18.3746 -18.3590 -18.3543 -18.2686 -18.2510 -18.0717 -18.0683
   -12.5080 -12.4977 -12.4053 -11.5784 -11.5751 -11.4287 -11.4128 -10.9233
   -10.9214  -9.9262  -9.9246  -9.6733  -9.3764  -9.3663  -9.2271  -9.2253
    -9.0393  -9.0378  -8.9056  -8.3199  -8.3188  -7.9005  -7.8949  -7.8608
    -7.8412  -7.7679  -7.5938  -7.5716  -7.1103  -7.0820  -6.9569  -6.8850
    -6.8835  -6.8403  -6.5276  -6.5265  -6.2548  -5.3272  -5.3068  -5.1404
    -5.0624  -4.7972  -4.7739  -4.7430  -4.6084  -4.5847  -4.3360  -4.3225
    -1.4425   0.3952   0.9510   1.0215   1.0660   1.1144   1.2068   1.3437
     1.4191   1.5173   1.5866   1.6342   1.7468   1.8439   1.8918   1.9260
     2.0223   2.0418   2.1151   2.1785   2.2168   2.2975

          k =-0.5000-0.8660 0.0000 ( 59292 PWs)   bands (ev):

   -68.6909 -68.6823 -40.3579 -40.2694 -40.1182 -40.1094 -40.0650 -40.0556
   -21.0506 -21.0387 -20.4655 -20.4609 -19.4247 -19.4223 -19.4057 -19.4018
   -18.9923 -18.9808 -18.3260 -18.3209 -18.3174 -18.2948 -17.7876 -17.7855
   -12.0702 -12.0668 -12.0649 -12.0494 -11.8744 -11.8726 -11.3288 -11.3228
   -10.2319 -10.2312 -10.1326 -10.1286 -10.1261 -10.1236  -8.5611  -8.5476
    -8.5455  -8.5420  -8.5399  -8.5319  -7.8625  -7.8598  -7.8585  -7.8566
    -7.8177  -7.8156  -7.7642  -7.7431  -7.4916  -7.4797  -6.6070  -6.6069
    -6.3327  -6.3112  -6.3028  -6.2784  -6.1901  -6.1812  -5.6949  -5.6865
    -5.5464  -5.5354  -4.7097  -4.7038  -4.6841  -4.6804  -3.8694  -3.8592
    -1.3997   0.1328   0.9622   0.9904   1.0561   1.2052   1.2439   1.3613
     1.4664   1.5180   1.5836   1.7069   1.7496   1.8739   1.9202   1.9239
     1.9820   2.0726   2.1933   2.2337   2.2872   2.3257

          k =-0.1667 0.2887 0.0000 ( 59267 PWs)   bands (ev):

   -68.6909 -68.6823 -40.3579 -40.2694 -40.1182 -40.1094 -40.0650 -40.0556
   -21.2434 -20.6601 -20.6493 -20.1062 -20.0872 -19.5874 -19.5755 -19.0956
   -18.6964 -18.6844 -18.4586 -18.4413 -18.1899 -18.0829 -18.0722 -17.8451
   -12.4823 -12.2074 -12.1957 -11.8199 -11.8143 -11.6561 -11.1913 -11.1846
   -10.3892 -10.3653 -10.1165 -10.1104  -9.5874  -9.5848  -8.8297  -8.8168
    -8.8148  -8.7670  -8.7560  -8.5938  -8.1947  -8.0258  -8.0094  -7.8285
    -7.8230  -7.4357  -7.4334  -7.2696  -7.2396  -7.2074  -7.2023  -6.9629
    -6.9479  -6.5419  -6.5334  -6.1516  -6.1496  -5.8557  -5.4154  -5.2750
    -5.2619  -5.1974  -4.9060  -4.8802  -4.4897  -4.3429  -4.3292  -3.9656
    -1.4332   0.3813   0.9268   1.0477   1.0946   1.1884   1.2472   1.3410
     1.3788   1.4948   1.5118   1.5723   1.6367   1.7010   1.8612   2.0175
     2.0349   2.1125   2.1382   2.1887   2.2457   2.2993

          k = 0.3333 0.0000 0.0000 ( 59267 PWs)   bands (ev):

   -68.6909 -68.6823 -40.3579 -40.2694 -40.1182 -40.1094 -40.0650 -40.0556
   -21.2430 -20.6818 -20.6274 -20.1067 -20.0856 -19.6088 -19.5556 -19.0974
   -18.7097 -18.6667 -18.4613 -18.4402 -18.1866 -18.1017 -18.0585 -17.8444
   -12.4811 -12.2103 -12.1935 -11.8282 -11.8084 -11.6548 -11.2064 -11.1691
   -10.3891 -10.3644 -10.1287 -10.0994  -9.5927  -9.5783  -8.8298  -8.8215
    -8.8079  -8.7853  -8.7390  -8.5943  -8.1965  -8.0752  -7.9596  -7.8268
    -7.8226  -7.4415  -7.4276  -7.2779  -7.2269  -7.2150  -7.1942  -6.9650
    -6.9473  -6.5935  -6.4872  -6.1539  -6.1466  -5.8609  -5.4155  -5.2942
    -5.2340  -5.1976  -4.9134  -4.8750  -4.4832  -4.3697  -4.3118  -3.9647
    -1.4177   0.2135   0.9610   1.0593   1.0920   1.1534   1.2284   1.3847
     1.4789   1.5083   1.5423   1.6132   1.7729   1.8605   1.8978   1.9210
     2.0331   2.0521   2.1394   2.1843   2.2511   2.3879

          k =-0.1667-0.4811 0.0000 ( 59291 PWs)   bands (ev):

   -68.6909 -68.6823 -40.3579 -40.2694 -40.1182 -40.1094 -40.0650 -40.0556
   -21.1130 -20.9087 -20.7192 -20.1571 -19.8008 -19.4629 -19.3130 -19.1710
   -19.0102 -18.7757 -18.6363 -18.5399 -18.1435 -18.0859 -17.9178 -17.7192
   -12.3465 -12.1114 -12.0420 -11.9042 -11.6790 -11.6549 -11.5503 -10.9389
   -10.8878 -10.6214 -10.5202  -9.8573  -9.6910  -9.3331  -9.1085  -8.6460
    -8.6205  -8.5503  -8.3865  -8.3548  -8.1588  -8.1073  -8.0617  -8.0467
    -7.6860  -7.6209  -7.4921  -7.4712  -7.3395  -7.1679  -7.0650  -6.8454
    -6.6187  -6.3738  -6.1614  -6.1551  -5.9587  -5.9257  -5.7809  -5.7294
    -5.4488  -5.3841  -5.1885  -5.0314  -4.4248  -4.3399  -4.0759  -3.7536
    -1.4239   0.3700   0.8997   0.9961   1.0792   1.1420   1.1792   1.2470
     1.2980   1.4604   1.5164   1.7432   1.7662   1.8033   1.8901   2.0854
     2.1153   2.1362   2.1695   2.2003   2.2725   2.2958

          k = 0.5000-0.0962 0.0000 ( 59291 PWs)   bands (ev):

   -68.6909 -68.6823 -40.3579 -40.2694 -40.1182 -40.1094 -40.0650 -40.0556
   -21.1104 -20.9159 -20.7145 -20.1557 -19.8008 -19.4641 -19.3191 -19.1662
   -19.0113 -18.7757 -18.6276 -18.5456 -18.1339 -18.0998 -17.9147 -17.7190
   -12.3445 -12.1122 -12.0403 -11.9084 -11.6908 -11.6417 -11.5519 -10.9401
   -10.8849 -10.6191 -10.5229  -9.8557  -9.6913  -9.3339  -9.1080  -8.6381
    -8.6206  -8.5483  -8.3917  -8.3780  -8.1570  -8.0916  -8.0731  -8.0360
    -7.6823  -7.6214  -7.4912  -7.4725  -7.3351  -7.1688  -7.0660  -6.8445
    -6.6192  -6.3791  -6.1764  -6.1547  -5.9463  -5.9255  -5.7802  -5.7319
    -5.4497  -5.3842  -5.1701  -5.0428  -4.4061  -4.3641  -4.0722  -3.7535
    -1.3997   0.1346   0.9496   0.9811   1.0629   1.1547   1.2218   1.2477
     1.3319   1.6021   1.7108   1.7350   1.8239   1.9048   1.9537   1.9890
     2.0534   2.1448   2.2068   2.2568   2.2713   2.3147

          k =-0.3333-0.3849 0.0000 ( 59291 PWs)   bands (ev):

   -68.6909 -68.6823 -40.3579 -40.2694 -40.1182 -40.1094 -40.0650 -40.0556
   -21.1113 -20.9134 -20.7163 -20.1555 -19.8024 -19.4627 -19.3145 -19.1690
   -19.0142 -18.7738 -18.6287 -18.5452 -18.1355 -18.0977 -17.9149 -17.7192
   -12.3459 -12.1093 -12.0430 -11.9063 -11.6803 -11.6535 -11.5513 -10.9397
   -10.8854 -10.6187 -10.5232  -9.8557  -9.6913  -9.3342  -9.1089  -8.6402
    -8.6199  -8.5498  -8.3879  -8.3703  -8.1584  -8.0977  -8.0619  -8.0487
    -7.6828  -7.6198  -7.4971  -7.4668  -7.3341  -7.1689  -7.0665  -6.8505
    -6.6175  -6.3742  -6.1638  -6.1564  -5.9548  -5.9242  -5.7803  -5.7398
    -5.4496  -5.3795  -5.1712  -5.0432  -4.4084  -4.3614  -4.0719  -3.7537
    -1.4080   0.2009   0.9359   0.9796   1.0559   1.1804   1.2292   1.2535
     1.2978   1.5117   1.6874   1.7560   1.8280   1.8716   1.9563   2.0163
     2.0603   2.1008   2.1463   2.2286   2.2716   2.3191

          k = 0.5000 0.0962 0.0000 ( 59291 PWs)   bands (ev):

   -68.6909 -68.6823 -40.3579 -40.2694 -40.1182 -40.1094 -40.0650 -40.0556
   -21.1104 -20.9159 -20.7145 -20.1557 -19.8007 -19.4641 -19.3191 -19.1661
   -19.0113 -18.7757 -18.6276 -18.5456 -18.1339 -18.0998 -17.9147 -17.7190
   -12.3445 -12.1122 -12.0403 -11.9084 -11.6908 -11.6416 -11.5519 -10.9401
   -10.8849 -10.6192 -10.5230  -9.8557  -9.6913  -9.3339  -9.1079  -8.6381
    -8.6206  -8.5483  -8.3917  -8.3780  -8.1570  -8.0916  -8.0731  -8.0359
    -7.6824  -7.6213  -7.4913  -7.4726  -7.3351  -7.1689  -7.0659  -6.8445
    -6.6191  -6.3791  -6.1764  -6.1546  -5.9463  -5.9255  -5.7803  -5.7319
    -5.4497  -5.3842  -5.1701  -5.0428  -4.4061  -4.3640  -4.0722  -3.7535
    -1.3997   0.1346   0.9496   0.9811   1.0629   1.1547   1.2218   1.2477
     1.3319   1.6021   1.7108   1.7349   1.8239   1.9048   1.9537   1.9890
     2.0534   2.1449   2.2068   2.2568   2.2713   2.3147

          k =-0.3333 0.3849 0.0000 ( 59291 PWs)   bands (ev):

   -68.6909 -68.6823 -40.3579 -40.2694 -40.1182 -40.1094 -40.0650 -40.0556
   -21.1113 -20.9134 -20.7163 -20.1555 -19.8024 -19.4627 -19.3145 -19.1690
   -19.0142 -18.7739 -18.6287 -18.5452 -18.1355 -18.0977 -17.9149 -17.7192
   -12.3459 -12.1093 -12.0430 -11.9063 -11.6804 -11.6535 -11.5513 -10.9398
   -10.8854 -10.6187 -10.5232  -9.8557  -9.6913  -9.3341  -9.1089  -8.6402
    -8.6199  -8.5498  -8.3880  -8.3703  -8.1584  -8.0977  -8.0619  -8.0486
    -7.6828  -7.6198  -7.4972  -7.4668  -7.3341  -7.1688  -7.0666  -6.8505
    -6.6176  -6.3742  -6.1638  -6.1564  -5.9548  -5.9243  -5.7803  -5.7398
    -5.4495  -5.3794  -5.1712  -5.0432  -4.4084  -4.3614  -4.0719  -3.7537
    -1.4080   0.2009   0.9359   0.9796   1.0559   1.1804   1.2292   1.2536
     1.2978   1.5117   1.6874   1.7560   1.8280   1.8716   1.9564   2.0163
     2.0604   2.1007   2.1464   2.2287   2.2716   2.3193

          k =-0.1667-0.0962 0.0000 ( 59226 PWs)   bands (ev):

   -68.6909 -68.6823 -40.3579 -40.2694 -40.1182 -40.1094 -40.0650 -40.0556
   -21.3098 -20.5322 -20.3418 -20.3358 -19.9830 -19.9783 -19.8018 -18.7237
   -18.7201 -18.3746 -18.3590 -18.3543 -18.2686 -18.2510 -18.0717 -18.0683
   -12.5080 -12.4977 -12.4053 -11.5783 -11.5751 -11.4287 -11.4128 -10.9233
   -10.9214  -9.9262  -9.9247  -9.6732  -9.3764  -9.3662  -9.2271  -9.2253
    -9.0393  -9.0378  -8.9056  -8.3199  -8.3189  -7.9005  -7.8948  -7.8608
    -7.8412  -7.7679  -7.5938  -7.5716  -7.1103  -7.0820  -6.9569  -6.8850
    -6.8835  -6.8403  -6.5275  -6.5265  -6.2549  -5.3272  -5.3068  -5.1403
    -5.0625  -4.7971  -4.7739  -4.7430  -4.6084  -4.5847  -4.3360  -4.3225
    -1.4425   0.3952   0.9510   1.0215   1.0660   1.1144   1.2067   1.3437
     1.4191   1.5173   1.5866   1.6342   1.7469   1.8439   1.8918   1.9260
     2.0223   2.0417   2.1154   2.1788   2.2169   2.2976

          k =-0.0000-0.1925 0.0000 ( 59226 PWs)   bands (ev):

   -68.6909 -68.6823 -40.3579 -40.2694 -40.1182 -40.1094 -40.0650 -40.0556
   -21.3099 -20.5274 -20.3552 -20.3305 -19.9864 -19.9680 -19.8054 -18.7305
   -18.7096 -18.4003 -18.3568 -18.3467 -18.2519 -18.2507 -18.0818 -18.0631
   -12.5111 -12.4952 -12.4046 -11.5845 -11.5693 -11.4286 -11.4113 -10.9257
   -10.9204  -9.9303  -9.9210  -9.6732  -9.3750  -9.3656  -9.2289  -9.2247
    -9.0389  -9.0388  -8.9060  -8.3226  -8.3156  -7.9011  -7.8947  -7.8483
    -7.8368  -7.7695  -7.6169  -7.5745  -7.1006  -7.0708  -6.9556  -6.8894
    -6.8806  -6.8502  -6.5315  -6.5218  -6.2555  -5.3298  -5.2963  -5.1405
    -5.0623  -4.8340  -4.7731  -4.7344  -4.5875  -4.5783  -4.3479  -4.3182
    -1.4498   0.5201   0.9251   1.0236   1.0349   1.1456   1.2044   1.2903
     1.3715   1.4935   1.5221   1.5683   1.7550   1.8293   1.8495   1.9915
     2.0271   2.0566   2.0984   2.1582   2.2245   2.2676

          k = 0.5000-0.8660 0.0000 ( 59292 PWs)   bands (ev):

   -68.6909 -68.6823 -40.3579 -40.2694 -40.1182 -40.1094 -40.0650 -40.0556
   -21.0506 -21.0387 -20.4656 -20.4609 -19.4247 -19.4223 -19.4057 -19.4018
   -18.9924 -18.9807 -18.3260 -18.3209 -18.3175 -18.2947 -17.7876 -17.7855
   -12.0702 -12.0668 -12.0650 -12.0493 -11.8743 -11.8726 -11.3289 -11.3227
   -10.2319 -10.2312 -10.1326 -10.1286 -10.1261 -10.1236  -8.5611  -8.5477
    -8.5456  -8.5420  -8.5399  -8.5318  -7.8625  -7.8598  -7.8585  -7.8566
    -7.8178  -7.8157  -7.7642  -7.7431  -7.4916  -7.4798  -6.6070  -6.6069
    -6.3327  -6.3112  -6.3028  -6.2784  -6.1901  -6.1811  -5.6949  -5.6865
    -5.5465  -5.5355  -4.7097  -4.7038  -4.6842  -4.6804  -3.8694  -3.8592
    -1.3997   0.1328   0.9623   0.9904   1.0561   1.2053   1.2439   1.3613
     1.4664   1.5179   1.5836   1.7069   1.7497   1.8738   1.9201   1.9240
     1.9820   2.0727   2.1932   2.2337   2.2871   2.3257

          k =-1.0000 0.0000 0.0000 ( 59292 PWs)   bands (ev):

   -68.6909 -68.6823 -40.3579 -40.2694 -40.1182 -40.1094 -40.0650 -40.0556
   -21.0707 -21.0159 -20.4769 -20.4538 -19.4405 -19.4042 -19.4040 -19.3999
   -19.0096 -18.9661 -18.3724 -18.3092 -18.3007 -18.2765 -17.7971 -17.7779
   -12.1096 -12.0658 -12.0431 -12.0301 -11.8827 -11.8643 -11.3466 -11.3059
   -10.2495 -10.2289 -10.1312 -10.1281 -10.1213 -10.1173  -8.6031  -8.5758
    -8.5475  -8.5301  -8.5133  -8.4855  -7.8788  -7.8696  -7.8581  -7.8479
    -7.8096  -7.8095  -7.7789  -7.7412  -7.5111  -7.4627  -6.6123  -6.5987
    -6.3523  -6.3005  -6.2850  -6.2716  -6.2050  -6.1685  -5.7249  -5.6625
    -5.5632  -5.5192  -4.7862  -4.7002  -4.6578  -4.6360  -3.8806  -3.8501
    -1.4315   0.4880   0.8866   1.0281   1.0684   1.1862   1.2318   1.2725
     1.2769   1.3223   1.6075   1.6355   1.6801   1.7681   1.7801   1.8958
     2.0977   2.1418   2.1469   2.2084   2.2865   2.3228

     the Fermi energy is    -1.1408 ev

!    total energy              =   -1133.82810115 Ry

     total all-electron energy =     -6753.503804 Ry
     estimated scf accuracy    <       0.00000008 Ry
     smearing contrib. (-TS)   =      -0.00000000 Ry
     internal energy E=F+TS    =   -1133.82810115 Ry

     The total energy is F=E-TS. E is the sum of the following terms:
     one-electron contribution =   -3952.08693140 Ry
     hartree contribution      =    2004.22400014 Ry
     xc contribution           =    -186.01989358 Ry
     ewald contribution        =    1359.43118639 Ry
     DFT-D3 Dispersion         =      -0.13404275 Ry
     one-center paw contrib.   =    -359.24241995 Ry

     total magnetization       =    10.00 Bohr mag/cell
     absolute magnetization    =    10.01 Bohr mag/cell

     convergence has been achieved in  14 iterations

     Writing output data file ./mytmp/Crdimer0.1425-0.3.save/
 
     init_run     :     18.77s CPU     20.32s WALL (       1 calls)
     electrons    :    529.96s CPU    576.20s WALL (       1 calls)

     Called by init_run:
     wfcinit      :     13.80s CPU     14.74s WALL (       1 calls)
     potinit      :      1.49s CPU      1.59s WALL (       1 calls)
     hinit0       :      1.54s CPU      1.65s WALL (       1 calls)

     Called by electrons:
     c_bands      :    416.00s CPU    442.54s WALL (      14 calls)
     sum_band     :     81.08s CPU     92.28s WALL (      14 calls)
     v_of_rho     :      7.45s CPU      8.36s WALL (      15 calls)
     newd         :     18.10s CPU     25.20s WALL (      15 calls)
     PAW_pot      :      6.86s CPU      7.51s WALL (      15 calls)
     mix_rho      :      0.96s CPU      1.07s WALL (      14 calls)

     Called by c_bands:
     init_us_2    :      5.02s CPU      5.06s WALL (     870 calls)
     cegterg      :    403.69s CPU    430.14s WALL (     420 calls)

     Called by *egterg:
     cdiaghg      :     26.49s CPU     41.83s WALL (    2854 calls)
     h_psi        :    246.68s CPU    256.00s WALL (    2884 calls)
     s_psi        :     27.48s CPU     27.55s WALL (    2884 calls)
     g_psi        :      0.69s CPU      0.71s WALL (    2434 calls)

     Called by h_psi:
     h_psi:calbec :     29.20s CPU     29.98s WALL (    2884 calls)
     vloc_psi     :    187.06s CPU    195.45s WALL (    2884 calls)
     add_vuspsi   :     28.21s CPU     28.35s WALL (    2884 calls)

     General routines
     calbec       :     38.83s CPU     39.81s WALL (    3304 calls)
     fft          :      9.68s CPU     14.05s WALL (     369 calls)
     ffts         :      0.12s CPU      0.13s WALL (      58 calls)
     fftw         :    192.16s CPU    200.68s WALL (  251496 calls)
     interpolate  :      0.42s CPU      0.44s WALL (      30 calls)
 
     Parallel routines
     fft_scatt_xy :     31.57s CPU     32.69s WALL (  251923 calls)
     fft_scatt_yz :     80.44s CPU     88.89s WALL (  251923 calls)
 
     PWSCF        :   9m10.79s CPU  10m 1.33s WALL

 
   This run was terminated on:  14:20: 8   2Apr2021            

=------------------------------------------------------------------------------=
   JOB DONE.
=------------------------------------------------------------------------------=
