
     Program PWSCF v.6.7MaX starts on  2Apr2021 at 15:31:39 

     This program is part of the open-source Quantum ESPRESSO suite
     for quantum simulation of materials; please cite
         "P. Giannozzi et al., J. Phys.:Condens. Matter 21 395502 (2009);
         "P. Giannozzi et al., J. Phys.:Condens. Matter 29 465901 (2017);
          URL http://www.quantum-espresso.org", 
     in publications or presentations arising from this work. More details at
     http://www.quantum-espresso.org/quote

     Parallel version (MPI), running on    48 processors

     MPI processes distributed on     1 nodes
     R & G space division:  proc/nbgrp/npool/nimage =      48
     Reading input from Crdimer0.143-0.5.scf.in

     Current dimensions of program PWSCF are:
     Max number of different atomic species (ntypx) = 10
     Max number of k-points (npk) =  40000
     Max angular momentum in pseudopotentials (lmaxx) =  3
     file N.pbe-n-kjpaw_psl.1.0.0.UPF: wavefunction(s)  2S renormalized
     file Cr.pbe-spn-kjpaw_psl.1.0.0.UPF: wavefunction(s)  3S 3P 3D renormalized
     file Cr.pbe-spn-kjpaw_psl.1.0.0.UPF: wavefunction(s)  3S 3P 3D renormalized

     --------------------------------------------
     Parameters for DFT-D3 Dispersion Correction:
     --------------------------------------------
       Reference C6 values for interpolation: 

         atom   Coordination number   C6
         B          0.000           214.36
         B          0.971           150.74
         B          1.944           106.23
         B          2.913            62.89
         B          4.586            56.06
         N          0.000            50.54
         N          0.994            44.25
         N          2.014            39.35
         N          2.990            31.16
         Cr1        0.000          1381.48
         Cr1        1.827           571.38
         Cr1       10.619           306.69
         Cr2        0.000          1381.48
         Cr2        1.827           571.38
         Cr2       10.619           306.69

       Values used:

         atom   Coordination number  R0_AB[au]  C6      C8
         B          3.336            3.039     62.89   2505.99
         B          3.340            3.039     62.89   2505.89
         B          3.335            3.039     62.89   2506.01
         B          3.335            3.039     62.89   2506.01
         B          3.340            3.039     62.89   2505.89
         B          3.336            3.039     62.89   2505.99
         N          3.134            2.478     31.22    688.69
         N          3.158            2.478     31.21    688.49
         N          3.134            2.478     31.22    688.69
         N          3.134            2.478     31.22    688.70
         N          3.142            2.478     31.21    688.63
         N          3.136            2.478     31.22    688.68
         N          3.140            2.478     31.22    688.64
         N          3.135            2.478     31.22    688.69
         N          3.134            2.478     31.22    688.70
         B          3.359            3.039     62.88   2505.37
         B          3.340            3.039     62.89   2505.89
         B          3.336            3.039     62.89   2505.99
         B          3.340            3.039     62.89   2505.89
         B          3.336            3.039     62.89   2505.99
         B          3.359            3.039     62.88   2505.37
         N          3.140            2.478     31.22    688.64
         B          3.336            3.039     62.89   2505.99
         B          3.365            3.039     62.87   2505.22
         B          3.335            3.039     62.89   2506.01
         N          3.136            2.478     31.22    688.68
         N          3.158            2.478     31.21    688.49
         N          3.135            2.478     31.22    688.69
         N          3.135            2.478     31.22    688.69
         N          3.134            2.478     31.22    688.69
         N          3.134            2.478     31.22    688.70
         B          3.335            3.039     62.89   2506.01
         Cr1        0.690            3.252   1343.27 123968.43
         Cr2        0.690            3.252   1343.27 123968.43

         Molecular C6 ( Ry / a.u.^6 ) =     78726.84


     Subspace diagonalization in iterative solution of the eigenvalue problem:
     one sub-group per band group will be used
     scalapack distributed-memory algorithm (size of sub-group:  6*  6 procs)

 
     Parallelization info
     --------------------
     sticks:   dense  smooth     PW     G-vecs:    dense   smooth      PW
     Min         235      98     26                36277     9874    1408
     Max         236      99     27                36282     9883    1425
     Sum       11311    4741   1285              1741401   474235   68095
 


     bravais-lattice index     =            4
     lattice parameter (alat)  =      18.9275  a.u.
     unit-cell volume          =   10553.3021 (a.u.)^3
     number of atoms/cell      =           34
     number of atomic types    =            4
     number of electrons       =       156.00
     number of Kohn-Sham states=           94
     kinetic-energy cutoff     =      48.0000  Ry
     charge density cutoff     =     457.0000  Ry
     scf convergence threshold =      1.0E-07
     mixing beta               =       0.5000
     number of iterations used =            8  plain     mixing
     Exchange-correlation= SLA  PW   PBX  PBC
                           (   1   4   3   4   0   0   0)

     celldm(1)=  18.927497  celldm(2)=   0.000000  celldm(3)=   1.797125
     celldm(4)=   0.000000  celldm(5)=   0.000000  celldm(6)=   0.000000

     crystal axes: (cart. coord. in units of alat)
               a(1) = (   1.000000   0.000000   0.000000 )  
               a(2) = (  -0.500000   0.866025   0.000000 )  
               a(3) = (   0.000000   0.000000   1.797125 )  

     reciprocal axes: (cart. coord. in units 2 pi/alat)
               b(1) = (  1.000000  0.577350  0.000000 )  
               b(2) = (  0.000000  1.154701  0.000000 )  
               b(3) = (  0.000000  0.000000  0.556444 )  


     PseudoPot. # 1 for B  read from file:
     /home/sf05/q-e-qe-6.7MaX-Release/pseudo/B.pbe-n-kjpaw_psl.1.0.0.UPF
     MD5 check sum: d9c678ba5d3b2fd7b74e61139c9288d8
     Pseudo is Projector augmented-wave + core cor, Zval =  3.0
     Generated using "atomic" code by A. Dal Corso  v.5.1.2
     Shape of augmentation charge: PSQ
     Using radial grid of 1059 points,  4 beta functions with: 
                l(1) =   0
                l(2) =   0
                l(3) =   1
                l(4) =   1
     Q(r) pseudized with 0 coefficients 


     PseudoPot. # 2 for N  read from file:
     /home/sf05/q-e-qe-6.7MaX-Release/pseudo/N.pbe-n-kjpaw_psl.1.0.0.UPF
     MD5 check sum: e0e4e94a9c4025c5b51bd7d8793849bd
     Pseudo is Projector augmented-wave + core cor, Zval =  5.0
     Generated using "atomic" code by A. Dal Corso  v.5.1.2
     Shape of augmentation charge: PSQ
     Using radial grid of 1085 points,  4 beta functions with: 
                l(1) =   0
                l(2) =   0
                l(3) =   1
                l(4) =   1
     Q(r) pseudized with 0 coefficients 


     PseudoPot. # 3 for Cr read from file:
     /home/sf05/q-e-qe-6.7MaX-Release/pseudo/Cr.pbe-spn-kjpaw_psl.1.0.0.UPF
     MD5 check sum: 198f1a2427a48552563eee314eba32ba
     Pseudo is Projector augmented-wave + core cor, Zval = 14.0
     Generated using &quot;atomic&quot; code by A. Dal Corso  v.6.3
     Shape of augmentation charge: PSQ
     Using radial grid of 1183 points,  6 beta functions with: 
                l(1) =   0
                l(2) =   0
                l(3) =   1
                l(4) =   1
                l(5) =   2
                l(6) =   2
     Q(r) pseudized with 0 coefficients 


     PseudoPot. # 4 for Cr read from file:
     /home/sf05/q-e-qe-6.7MaX-Release/pseudo/Cr.pbe-spn-kjpaw_psl.1.0.0.UPF
     MD5 check sum: 198f1a2427a48552563eee314eba32ba
     Pseudo is Projector augmented-wave + core cor, Zval = 14.0
     Generated using &quot;atomic&quot; code by A. Dal Corso  v.6.3
     Shape of augmentation charge: PSQ
     Using radial grid of 1183 points,  6 beta functions with: 
                l(1) =   0
                l(2) =   0
                l(3) =   1
                l(4) =   1
                l(5) =   2
                l(6) =   2
     Q(r) pseudized with 0 coefficients 


     atomic species   valence    mass     pseudopotential
        B              3.00    10.81100     B ( 1.00)
        N              5.00    14.00674     N ( 1.00)
        Cr1           14.00    51.99610     Cr( 1.00)
        Cr2           14.00    51.99610     Cr( 1.00)

     Starting magnetic structure 
     atomic species   magnetization
        B            0.000
        N            0.000
        Cr1          1.000
        Cr2          1.000

     No symmetry found



   Cartesian axes

     site n.     atom                  positions (alat units)
         1           B   tau(   1) = (  -0.1250000   0.2165064   0.8985623  )
         2           B   tau(   2) = (   0.3750000   0.6495191   0.8985623  )
         3           B   tau(   3) = (   0.2500000   0.0000000   0.8985623  )
         4           B   tau(   4) = (   0.7500000   0.0000000   0.8985623  )
         5           B   tau(   5) = (   0.1250000   0.2165064   0.8985623  )
         6           B   tau(   6) = (  -0.3750000   0.6495191   0.8985623  )
         7           N   tau(   7) = (   0.7500005   0.2886748   0.8985623  )
         8           N   tau(   8) = (   0.3750005   0.5051812   0.8985623  )
         9           N   tau(   9) = (   0.3750005   0.0721685   0.8985623  )
        10           N   tau(  10) = (   0.6250005   0.0721685   0.8985623  )
        11           N   tau(  11) = (   0.2500005   0.2886748   0.8985623  )
        12           N   tau(  12) = (   0.6250005   0.5051812   0.8985623  )
        13           N   tau(  13) = (   0.0000005   0.2886748   0.8985623  )
        14           N   tau(  14) = (   0.2500005   0.7216875   0.8985623  )
        15           N   tau(  15) = (  -0.2499995   0.7216875   0.8985623  )
        16           B   tau(  16) = (   0.0000000   0.4330127   0.8985623  )
        17           B   tau(  17) = (   0.1250000   0.6495191   0.8985623  )
        18           B   tau(  18) = (  -0.1250000   0.6495191   0.8985623  )
        19           B   tau(  19) = (   0.3750000   0.2165064   0.8985623  )
        20           B   tau(  20) = (   0.6250000   0.2165064   0.8985623  )
        21           B   tau(  21) = (   0.5000000   0.4330127   0.8985623  )
        22           N   tau(  22) = (   0.5000005   0.2886748   0.8985623  )
        23           B   tau(  23) = (  -0.2500000   0.4330127   0.8985623  )
        24           B   tau(  24) = (   0.2500000   0.4330127   0.8985623  )
        25           B   tau(  25) = (   0.5000000   0.0000000   0.8985623  )
        26           N   tau(  26) = (  -0.1249995   0.5051812   0.8985623  )
        27           N   tau(  27) = (   0.1250005   0.5051812   0.8985623  )
        28           N   tau(  28) = (   0.0000005   0.7216875   0.8985623  )
        29           N   tau(  29) = (   0.5000005   0.7216875   0.8985623  )
        30           N   tau(  30) = (   0.1250005   0.0721685   0.8985623  )
        31           N   tau(  31) = (   0.8750005   0.0721685   0.8985623  )
        32           B   tau(  32) = (   0.0000000   0.0000000   0.8985623  )
        33           Cr1 tau(  33) = (   0.3930000   0.4330127   1.2040735  )
        34           Cr2 tau(  34) = (   0.1070000   0.4330127   1.2040735  )

     number of k points=    15  Gaussian smearing, width (Ry)=  0.0000
                       cart. coord. in units 2pi/alat
        k(    1) = (   0.1666667   0.2886751   0.0000000), wk =   0.0740741
        k(    2) = (   0.1666667  -0.4811252   0.0000000), wk =   0.0740741
        k(    3) = (   0.1666667  -0.0962250   0.0000000), wk =   0.0740741
        k(    4) = (  -0.5000000  -0.8660254   0.0000000), wk =   0.0370370
        k(    5) = (  -0.1666667   0.2886751   0.0000000), wk =   0.0740741
        k(    6) = (   0.3333333   0.0000000   0.0000000), wk =   0.0740741
        k(    7) = (  -0.1666667  -0.4811252   0.0000000), wk =   0.0740741
        k(    8) = (   0.5000000  -0.0962250   0.0000000), wk =   0.0740741
        k(    9) = (  -0.3333333  -0.3849002   0.0000000), wk =   0.0740741
        k(   10) = (   0.5000000   0.0962250   0.0000000), wk =   0.0740741
        k(   11) = (  -0.3333333   0.3849002   0.0000000), wk =   0.0740741
        k(   12) = (  -0.1666667  -0.0962250   0.0000000), wk =   0.0740741
        k(   13) = (  -0.0000000  -0.1924501   0.0000000), wk =   0.0740741
        k(   14) = (   0.5000000  -0.8660254   0.0000000), wk =   0.0370370
        k(   15) = (  -1.0000000   0.0000000   0.0000000), wk =   0.0370370

     Dense  grid:  1741401 G-vectors     FFT dimensions: ( 135, 135, 240)

     Smooth grid:   474235 G-vectors     FFT dimensions: (  90,  90, 160)

     Estimated max dynamical RAM per process >     218.62 MB

     Estimated total dynamical RAM >      10.25 GB
     Generating pointlists ...
     new r_m :   0.0595 (alat units)  1.1269 (a.u.) for type    1
     new r_m :   0.0595 (alat units)  1.1269 (a.u.) for type    2
     new r_m :   0.1180 (alat units)  2.2330 (a.u.) for type    3
     new r_m :   0.1180 (alat units)  2.2330 (a.u.) for type    4

     Initial potential from superposition of free atoms

     starting charge  155.99382, renormalised to  156.00000

     negative rho (up, down):  6.707E-03 4.655E-04
     Starting wfcs are  148 randomized atomic wfcs
     Checking if some PAW data can be deallocated... 

     total cpu time spent up to now is       20.0 secs

     Self-consistent Calculation

     iteration #  1     ecut=    48.00 Ry     beta= 0.50
     Davidson diagonalization with overlap
     ethr =  1.00E-02,  avg # of iterations =  2.8

     negative rho (up, down):  4.890E-03 2.909E-03

     total cpu time spent up to now is       69.9 secs

     total energy              =   -1130.73931088 Ry
     estimated scf accuracy    <      11.36550908 Ry

     total magnetization       =    12.00 Bohr mag/cell
     absolute magnetization    =    12.12 Bohr mag/cell

     iteration #  2     ecut=    48.00 Ry     beta= 0.50
     Davidson diagonalization with overlap
     ethr =  7.29E-03,  avg # of iterations =  2.8

     negative rho (up, down):  8.833E-03 8.027E-03

     total cpu time spent up to now is      137.2 secs

     total energy              =   -1132.91764208 Ry
     estimated scf accuracy    <       3.78624906 Ry

     total magnetization       =    10.00 Bohr mag/cell
     absolute magnetization    =    10.07 Bohr mag/cell

     iteration #  3     ecut=    48.00 Ry     beta= 0.50
     Davidson diagonalization with overlap
     ethr =  2.43E-03,  avg # of iterations =  6.9

     negative rho (up, down):  4.081E-03 4.085E-03

     total cpu time spent up to now is      206.9 secs

     total energy              =   -1133.56474255 Ry
     estimated scf accuracy    <       0.84478220 Ry

     total magnetization       =    11.85 Bohr mag/cell
     absolute magnetization    =    11.91 Bohr mag/cell

     iteration #  4     ecut=    48.00 Ry     beta= 0.50
     Davidson diagonalization with overlap
     ethr =  5.42E-04,  avg # of iterations =  6.1

     negative rho (up, down):  6.907E-03 7.589E-03

     total cpu time spent up to now is      275.7 secs

     total energy              =   -1133.78469398 Ry
     estimated scf accuracy    <       0.44526292 Ry

     total magnetization       =    10.00 Bohr mag/cell
     absolute magnetization    =    10.02 Bohr mag/cell

     iteration #  5     ecut=    48.00 Ry     beta= 0.50
     Davidson diagonalization with overlap
     ethr =  2.85E-04,  avg # of iterations =  6.8

     negative rho (up, down):  4.662E-03 4.941E-03

     total cpu time spent up to now is      332.4 secs

     total energy              =   -1133.81642192 Ry
     estimated scf accuracy    <       0.03078841 Ry

     total magnetization       =    10.00 Bohr mag/cell
     absolute magnetization    =    10.02 Bohr mag/cell

     iteration #  6     ecut=    48.00 Ry     beta= 0.50
     Davidson diagonalization with overlap
     c_bands:  1 eigenvalues not converged
     c_bands:  1 eigenvalues not converged
     c_bands:  1 eigenvalues not converged
     ethr =  1.97E-05,  avg # of iterations = 11.7

     negative rho (up, down):  3.832E-03 3.903E-03

     total cpu time spent up to now is      386.0 secs

     total energy              =   -1133.81930741 Ry
     estimated scf accuracy    <       0.04685791 Ry

     total magnetization       =    10.00 Bohr mag/cell
     absolute magnetization    =    10.02 Bohr mag/cell

     iteration #  7     ecut=    48.00 Ry     beta= 0.50
     Davidson diagonalization with overlap
     ethr =  1.97E-05,  avg # of iterations =  6.2

     negative rho (up, down):  3.436E-03 3.880E-03

     total cpu time spent up to now is      428.2 secs

     total energy              =   -1133.82702178 Ry
     estimated scf accuracy    <       0.00235082 Ry

     total magnetization       =    10.00 Bohr mag/cell
     absolute magnetization    =    10.02 Bohr mag/cell

     iteration #  8     ecut=    48.00 Ry     beta= 0.50
     Davidson diagonalization with overlap
     ethr =  1.51E-06,  avg # of iterations =  9.4

     negative rho (up, down):  3.192E-03 3.745E-03

     total cpu time spent up to now is      477.0 secs

     total energy              =   -1133.82774107 Ry
     estimated scf accuracy    <       0.00060055 Ry

     total magnetization       =    10.00 Bohr mag/cell
     absolute magnetization    =    10.01 Bohr mag/cell

     iteration #  9     ecut=    48.00 Ry     beta= 0.50
     Davidson diagonalization with overlap
     ethr =  3.85E-07,  avg # of iterations =  2.6

     negative rho (up, down):  3.145E-03 3.747E-03

     total cpu time spent up to now is      511.0 secs

     total energy              =   -1133.82791045 Ry
     estimated scf accuracy    <       0.00007548 Ry

     total magnetization       =    10.00 Bohr mag/cell
     absolute magnetization    =    10.01 Bohr mag/cell

     iteration # 10     ecut=    48.00 Ry     beta= 0.50
     Davidson diagonalization with overlap
     ethr =  4.84E-08,  avg # of iterations =  4.6

     negative rho (up, down):  3.122E-03 3.753E-03

     total cpu time spent up to now is      555.3 secs

     total energy              =   -1133.82797736 Ry
     estimated scf accuracy    <       0.00002801 Ry

     total magnetization       =    10.00 Bohr mag/cell
     absolute magnetization    =    10.01 Bohr mag/cell

     iteration # 11     ecut=    48.00 Ry     beta= 0.50
     Davidson diagonalization with overlap
     ethr =  1.80E-08,  avg # of iterations =  4.0

     negative rho (up, down):  3.117E-03 3.771E-03

     total cpu time spent up to now is      590.9 secs

     total energy              =   -1133.82800505 Ry
     estimated scf accuracy    <       0.00000676 Ry

     total magnetization       =    10.00 Bohr mag/cell
     absolute magnetization    =    10.01 Bohr mag/cell

     iteration # 12     ecut=    48.00 Ry     beta= 0.50
     Davidson diagonalization with overlap
     ethr =  4.33E-09,  avg # of iterations =  4.5

     negative rho (up, down):  3.114E-03 3.791E-03

     total cpu time spent up to now is      629.0 secs

     total energy              =   -1133.82801642 Ry
     estimated scf accuracy    <       0.00000342 Ry

     total magnetization       =    10.00 Bohr mag/cell
     absolute magnetization    =    10.01 Bohr mag/cell

     iteration # 13     ecut=    48.00 Ry     beta= 0.50
     Davidson diagonalization with overlap
     ethr =  2.19E-09,  avg # of iterations =  4.8

     negative rho (up, down):  3.110E-03 3.795E-03

     total cpu time spent up to now is      666.3 secs

     total energy              =   -1133.82802170 Ry
     estimated scf accuracy    <       0.00000026 Ry

     total magnetization       =    10.00 Bohr mag/cell
     absolute magnetization    =    10.01 Bohr mag/cell

     iteration # 14     ecut=    48.00 Ry     beta= 0.50
     Davidson diagonalization with overlap
     ethr =  1.66E-10,  avg # of iterations =  5.3

     negative rho (up, down):  3.108E-03 3.798E-03

     total cpu time spent up to now is      705.9 secs

     total energy              =   -1133.82802252 Ry
     estimated scf accuracy    <       0.00000011 Ry

     total magnetization       =    10.00 Bohr mag/cell
     absolute magnetization    =    10.01 Bohr mag/cell

     iteration # 15     ecut=    48.00 Ry     beta= 0.50
     Davidson diagonalization with overlap
     ethr =  6.78E-11,  avg # of iterations =  5.0

     negative rho (up, down):  3.108E-03 3.798E-03
 
     Magnetic moment per site:
     atom:    1    charge:    0.8806    magn:    0.0004    constr:    0.0000
     atom:    2    charge:    0.8801    magn:    0.0008    constr:    0.0000
     atom:    3    charge:    0.8802    magn:    0.0001    constr:    0.0000
     atom:    4    charge:    0.8803    magn:    0.0001    constr:    0.0000
     atom:    5    charge:    0.8800    magn:    0.0001    constr:    0.0000
     atom:    6    charge:    0.8805    magn:    0.0001    constr:    0.0000
     atom:    7    charge:    2.8610    magn:    0.0004    constr:    0.0000
     atom:    8    charge:    2.8610    magn:    0.0064    constr:    0.0000
     atom:    9    charge:    2.8609    magn:    0.0003    constr:    0.0000
     atom:   10    charge:    2.8609    magn:    0.0002    constr:    0.0000
     atom:   11    charge:    2.8604    magn:    0.0046    constr:    0.0000
     atom:   12    charge:    2.8609    magn:    0.0014    constr:    0.0000
     atom:   13    charge:    2.8596    magn:    0.0040    constr:    0.0000
     atom:   14    charge:    2.8597    magn:    0.0009    constr:    0.0000
     atom:   15    charge:    2.8600    magn:    0.0000    constr:    0.0000
     atom:   16    charge:    0.8807    magn:   -0.0000    constr:    0.0000
     atom:   17    charge:    0.8798    magn:    0.0008    constr:    0.0000
     atom:   18    charge:    0.8802    magn:    0.0001    constr:    0.0000
     atom:   19    charge:    0.8794    magn:    0.0001    constr:    0.0000
     atom:   20    charge:    0.8800    magn:    0.0004    constr:    0.0000
     atom:   21    charge:    0.8805    magn:   -0.0000    constr:    0.0000
     atom:   22    charge:    2.8609    magn:    0.0040    constr:    0.0000
     atom:   23    charge:    0.8804    magn:    0.0002    constr:    0.0000
     atom:   24    charge:    0.8788    magn:    0.0001    constr:    0.0000
     atom:   25    charge:    0.8799    magn:    0.0001    constr:    0.0000
     atom:   26    charge:    2.8598    magn:    0.0014    constr:    0.0000
     atom:   27    charge:    2.8598    magn:    0.0064    constr:    0.0000
     atom:   28    charge:    2.8598    magn:    0.0007    constr:    0.0000
     atom:   29    charge:    2.8596    magn:    0.0007    constr:    0.0000
     atom:   30    charge:    2.8596    magn:    0.0003    constr:    0.0000
     atom:   31    charge:    2.8596    magn:    0.0002    constr:    0.0000
     atom:   32    charge:    0.8802    magn:    0.0001    constr:    0.0000
     atom:   33    charge:   12.5474    magn:    4.2566    constr:    0.0000
     atom:   34    charge:   12.5474    magn:    4.2566    constr:    0.0000

     total cpu time spent up to now is      744.1 secs

     End of self-consistent calculation

 ------ SPIN UP ------------


          k = 0.1667 0.2887 0.0000 ( 59267 PWs)   bands (ev):

   -72.8819 -72.8748 -44.4306 -44.3583 -44.2819 -44.2749 -44.2558 -44.2487
   -21.2475 -20.6608 -20.6570 -20.1054 -20.0971 -19.5872 -19.5846 -19.1002
   -18.6980 -18.6924 -18.4587 -18.4510 -18.1958 -18.0861 -18.0790 -17.8505
   -12.4847 -12.2079 -12.2016 -11.8216 -11.8185 -11.6594 -11.1921 -11.1902
   -10.3927 -10.3684 -10.1186 -10.1156  -9.5897  -9.5889  -8.8374  -8.8268
    -8.8232  -8.7665  -8.7631  -8.5973  -8.1979  -8.0535  -8.0150  -7.8302
    -7.8277  -7.4398  -7.4374  -7.2837  -7.2582  -7.2085  -7.2077  -6.9623
    -6.9553  -6.5680  -6.5372  -6.1546  -6.1538  -5.8724  -5.4194  -5.2973
    -5.2741  -5.2011  -4.9132  -4.9009  -4.5084  -4.3581  -4.3400  -3.9803
    -2.8538  -2.0215  -1.9999  -1.8214  -1.6329  -1.5777  -1.4875  -1.4742
    -1.3846  -1.3793  -1.3299  -0.7548   0.6808   0.8481   1.0554   1.2013
     1.2966   1.4818   1.5190   1.5743   1.6088   1.7979

          k = 0.1667-0.4811 0.0000 ( 59291 PWs)   bands (ev):

   -72.8819 -72.8748 -44.4307 -44.3583 -44.2819 -44.2749 -44.2558 -44.2487
   -21.1172 -20.9128 -20.7236 -20.1616 -19.8050 -19.4673 -19.3177 -19.1755
   -19.0151 -18.7795 -18.6423 -18.5450 -18.1500 -18.0900 -17.9230 -17.7247
   -12.3488 -12.1139 -12.0454 -11.9071 -11.6812 -11.6597 -11.5533 -10.9429
   -10.8909 -10.6242 -10.5239  -9.8611  -9.6940  -9.3369  -9.1117  -8.6685
    -8.6236  -8.5539  -8.3898  -8.3678  -8.1624  -8.1234  -8.0635  -8.0509
    -7.6895  -7.6242  -7.4950  -7.4751  -7.3568  -7.1717  -7.0685  -6.8612
    -6.6229  -6.3897  -6.1786  -6.1587  -5.9729  -5.9301  -5.7846  -5.7458
    -5.4523  -5.3978  -5.2101  -5.0425  -4.4458  -4.3486  -4.0898  -3.7681
    -2.8508  -2.0212  -2.0005  -1.8179  -1.6313  -1.5775  -1.4902  -1.4746
    -1.3844  -1.3791  -1.3319  -0.7592   0.5946   0.8350   1.0749   1.1145
     1.2437   1.2727   1.3966   1.8408   1.9294   2.1086

          k = 0.1667-0.0962 0.0000 ( 59226 PWs)   bands (ev):

   -72.8819 -72.8748 -44.4306 -44.3584 -44.2820 -44.2749 -44.2558 -44.2487
   -21.3140 -20.5363 -20.3477 -20.3381 -19.9908 -19.9799 -19.8066 -18.7319
   -18.7213 -18.3767 -18.3684 -18.3555 -18.2707 -18.2620 -18.0795 -18.0709
   -12.5088 -12.5022 -12.4088 -11.5829 -11.5761 -11.4280 -11.4205 -10.9273
   -10.9241  -9.9307  -9.9263  -9.6765  -9.3757  -9.3731  -9.2313  -9.2286
    -9.0431  -9.0410  -8.9241  -8.3251  -8.3217  -7.9025  -7.9001  -7.8814
    -7.8458  -7.7712  -7.6115  -7.5809  -7.1378  -7.0903  -6.9601  -6.8893
    -6.8857  -6.8516  -6.5329  -6.5283  -6.2583  -5.3539  -5.3148  -5.1442
    -5.0661  -4.8099  -4.8008  -4.7490  -4.6162  -4.6080  -4.3560  -4.3300
    -2.8570  -2.0218  -1.9994  -1.8249  -1.6355  -1.5778  -1.4850  -1.4737
    -1.3846  -1.3797  -1.3281  -0.7502   0.7819   0.8457   1.0066   1.2105
     1.2602   1.3475   1.5827   1.6014   1.7295   1.9386

          k =-0.5000-0.8660 0.0000 ( 59292 PWs)   bands (ev):

   -72.8819 -72.8748 -44.4307 -44.3584 -44.2820 -44.2750 -44.2557 -44.2487
   -21.0500 -21.0478 -20.4721 -20.4627 -19.4300 -19.4196 -19.4148 -19.4086
   -18.9926 -18.9903 -18.3259 -18.3213 -18.3173 -18.3147 -17.7963 -17.7876
   -12.0715 -12.0664 -12.0639 -12.0617 -11.8805 -11.8722 -11.3296 -11.3284
   -10.2369 -10.2310 -10.1370 -10.1335 -10.1303 -10.1259  -8.5903  -8.5509
    -8.5476  -8.5456  -8.5450  -8.5389  -7.8659  -7.8642  -7.8593  -7.8576
    -7.8260  -7.8199  -7.7838  -7.7520  -7.4906  -7.4874  -6.6138  -6.6069
    -6.3630  -6.3314  -6.3067  -6.2929  -6.1905  -6.1887  -5.7121  -5.6972
    -5.5462  -5.5428  -4.7294  -4.7204  -4.6969  -4.6923  -3.8915  -3.8656
    -2.8379  -2.0190  -1.9998  -1.8195  -1.6336  -1.5769  -1.4910  -1.4743
    -1.3897  -1.3830  -1.3350  -0.8789   0.7811   0.9971   1.1205   1.1650
     1.3640   1.5675   1.5848   1.6056   1.7309   1.7476

          k =-0.1667 0.2887 0.0000 ( 59267 PWs)   bands (ev):

   -72.8819 -72.8748 -44.4306 -44.3583 -44.2819 -44.2749 -44.2558 -44.2487
   -21.2475 -20.6608 -20.6570 -20.1054 -20.0971 -19.5872 -19.5846 -19.1002
   -18.6980 -18.6924 -18.4587 -18.4510 -18.1958 -18.0861 -18.0790 -17.8505
   -12.4847 -12.2079 -12.2016 -11.8216 -11.8186 -11.6594 -11.1921 -11.1902
   -10.3927 -10.3684 -10.1185 -10.1157  -9.5897  -9.5889  -8.8374  -8.8268
    -8.8232  -8.7665  -8.7632  -8.5973  -8.1979  -8.0535  -8.0150  -7.8302
    -7.8277  -7.4398  -7.4375  -7.2837  -7.2582  -7.2085  -7.2077  -6.9624
    -6.9553  -6.5680  -6.5372  -6.1546  -6.1537  -5.8724  -5.4195  -5.2973
    -5.2741  -5.2010  -4.9132  -4.9009  -4.5084  -4.3581  -4.3400  -3.9803
    -2.8538  -2.0215  -1.9999  -1.8214  -1.6329  -1.5777  -1.4875  -1.4742
    -1.3846  -1.3793  -1.3299  -0.7548   0.6807   0.8481   1.0554   1.2013
     1.2966   1.4818   1.5190   1.5742   1.6088   1.7979

          k = 0.3333 0.0000 0.0000 ( 59267 PWs)   bands (ev):

   -72.8819 -72.8748 -44.4306 -44.3584 -44.2820 -44.2749 -44.2558 -44.2487
   -21.2471 -20.6862 -20.6315 -20.1060 -20.0947 -19.6139 -19.5600 -19.1023
   -18.7143 -18.6711 -18.4619 -18.4496 -18.1910 -18.1091 -18.0629 -17.8496
   -12.4844 -12.2091 -12.2002 -11.8301 -11.8124 -11.6571 -11.2107 -11.1724
   -10.3918 -10.3682 -10.1312 -10.1033  -9.5962  -9.5813  -8.8455  -8.8239
    -8.8154  -8.7888  -8.7423  -8.5981  -8.1998  -8.1024  -7.9656  -7.8292
    -7.8266  -7.4454  -7.4311  -7.2941  -7.2424  -7.2187  -7.1974  -6.9648
    -6.9544  -6.6187  -6.4938  -6.1574  -6.1501  -5.8788  -5.4193  -5.3116
    -5.2493  -5.2013  -4.9214  -4.8953  -4.4996  -4.3849  -4.3259  -3.9787
    -2.8455  -2.0197  -1.9992  -1.8226  -1.6354  -1.5773  -1.4877  -1.4739
    -1.3880  -1.3821  -1.3317  -0.8381   0.8265   0.9906   1.0794   1.2483
     1.3205   1.4977   1.5146   1.5552   1.5879   1.8285

          k =-0.1667-0.4811 0.0000 ( 59291 PWs)   bands (ev):

   -72.8819 -72.8748 -44.4307 -44.3583 -44.2819 -44.2749 -44.2558 -44.2487
   -21.1172 -20.9128 -20.7236 -20.1616 -19.8050 -19.4673 -19.3177 -19.1755
   -19.0151 -18.7795 -18.6423 -18.5450 -18.1500 -18.0900 -17.9230 -17.7247
   -12.3488 -12.1139 -12.0454 -11.9070 -11.6812 -11.6597 -11.5534 -10.9429
   -10.8909 -10.6242 -10.5238  -9.8610  -9.6940  -9.3370  -9.1117  -8.6685
    -8.6236  -8.5540  -8.3898  -8.3678  -8.1623  -8.1234  -8.0635  -8.0510
    -7.6895  -7.6242  -7.4949  -7.4751  -7.3568  -7.1716  -7.0685  -6.8611
    -6.6230  -6.3897  -6.1786  -6.1587  -5.9729  -5.9300  -5.7845  -5.7458
    -5.4524  -5.3978  -5.2101  -5.0425  -4.4458  -4.3486  -4.0898  -3.7681
    -2.8508  -2.0212  -2.0005  -1.8179  -1.6313  -1.5775  -1.4902  -1.4746
    -1.3844  -1.3791  -1.3319  -0.7592   0.5946   0.8350   1.0749   1.1145
     1.2437   1.2727   1.3966   1.8408   1.9293   2.1086

          k = 0.5000-0.0962 0.0000 ( 59291 PWs)   bands (ev):

   -72.8819 -72.8748 -44.4306 -44.3584 -44.2819 -44.2749 -44.2558 -44.2487
   -21.1144 -20.9203 -20.7187 -20.1597 -19.8051 -19.4695 -19.3235 -19.1705
   -19.0162 -18.7806 -18.6317 -18.5512 -18.1375 -18.1070 -17.9201 -17.7244
   -12.3478 -12.1144 -12.0434 -11.9111 -11.6932 -11.6450 -11.5557 -10.9431
   -10.8888 -10.6225 -10.5263  -9.8587  -9.6947  -9.3380  -9.1111  -8.6580
    -8.6242  -8.5518  -8.4006  -8.3921  -8.1603  -8.1036  -8.0767  -8.0392
    -7.6854  -7.6247  -7.4940  -7.4762  -7.3505  -7.1731  -7.0694  -6.8605
    -6.6234  -6.3991  -6.1949  -6.1581  -5.9574  -5.9293  -5.7838  -5.7487
    -5.4534  -5.3984  -5.1866  -5.0569  -4.4236  -4.3769  -4.0865  -3.7674
    -2.8380  -2.0190  -1.9999  -1.8196  -1.6341  -1.5769  -1.4910  -1.4744
    -1.3897  -1.3831  -1.3351  -0.8787   0.7678   0.9928   1.1102   1.1581
     1.3017   1.3171   1.5492   1.7496   1.8333   1.9183

          k =-0.3333-0.3849 0.0000 ( 59291 PWs)   bands (ev):

   -72.8819 -72.8748 -44.4306 -44.3584 -44.2819 -44.2750 -44.2558 -44.2487
   -21.1154 -20.9177 -20.7206 -20.1595 -19.8072 -19.4674 -19.3183 -19.1741
   -19.0191 -18.7788 -18.6332 -18.5504 -18.1402 -18.1037 -17.9202 -17.7246
   -12.3483 -12.1125 -12.0457 -11.9101 -11.6822 -11.6575 -11.5546 -10.9430
   -10.8884 -10.6219 -10.5272  -9.8595  -9.6947  -9.3373  -9.1120  -8.6614
    -8.6229  -8.5540  -8.3919  -8.3866  -8.1618  -8.1111  -8.0635  -8.0536
    -7.6857  -7.6232  -7.5007  -7.4700  -7.3491  -7.1732  -7.0699  -6.8687
    -6.6213  -6.3908  -6.1792  -6.1603  -5.9701  -5.9282  -5.7839  -5.7575
    -5.4533  -5.3930  -5.1873  -5.0575  -4.4262  -4.3742  -4.0859  -3.7677
    -2.8423  -2.0199  -2.0002  -1.8190  -1.6328  -1.5771  -1.4905  -1.4746
    -1.3879  -1.3817  -1.3339  -0.8422   0.7064   0.9555   1.1034   1.1491
     1.2324   1.3804   1.4268   1.8021   1.8994   1.9164

          k = 0.5000 0.0962 0.0000 ( 59291 PWs)   bands (ev):

   -72.8819 -72.8748 -44.4306 -44.3584 -44.2819 -44.2749 -44.2558 -44.2487
   -21.1144 -20.9203 -20.7188 -20.1597 -19.8051 -19.4695 -19.3235 -19.1705
   -19.0162 -18.7806 -18.6317 -18.5512 -18.1375 -18.1070 -17.9201 -17.7244
   -12.3478 -12.1144 -12.0433 -11.9111 -11.6932 -11.6450 -11.5557 -10.9431
   -10.8888 -10.6225 -10.5263  -9.8587  -9.6947  -9.3380  -9.1111  -8.6580
    -8.6242  -8.5518  -8.4006  -8.3921  -8.1603  -8.1036  -8.0767  -8.0391
    -7.6855  -7.6246  -7.4940  -7.4763  -7.3505  -7.1732  -7.0693  -6.8605
    -6.6233  -6.3991  -6.1949  -6.1580  -5.9574  -5.9293  -5.7839  -5.7488
    -5.4534  -5.3985  -5.1866  -5.0569  -4.4236  -4.3769  -4.0866  -3.7674
    -2.8380  -2.0190  -1.9999  -1.8196  -1.6341  -1.5769  -1.4910  -1.4744
    -1.3897  -1.3831  -1.3351  -0.8787   0.7678   0.9928   1.1102   1.1581
     1.3017   1.3171   1.5491   1.7496   1.8333   1.9183

          k =-0.3333 0.3849 0.0000 ( 59291 PWs)   bands (ev):

   -72.8819 -72.8748 -44.4306 -44.3584 -44.2819 -44.2750 -44.2558 -44.2487
   -21.1154 -20.9177 -20.7206 -20.1595 -19.8072 -19.4674 -19.3183 -19.1741
   -19.0191 -18.7788 -18.6332 -18.5504 -18.1401 -18.1037 -17.9202 -17.7246
   -12.3483 -12.1125 -12.0457 -11.9101 -11.6822 -11.6575 -11.5546 -10.9430
   -10.8883 -10.6218 -10.5272  -9.8595  -9.6947  -9.3373  -9.1120  -8.6614
    -8.6229  -8.5539  -8.3920  -8.3866  -8.1619  -8.1111  -8.0635  -8.0536
    -7.6857  -7.6232  -7.5007  -7.4700  -7.3491  -7.1731  -7.0700  -6.8687
    -6.6214  -6.3908  -6.1792  -6.1604  -5.9700  -5.9283  -5.7838  -5.7575
    -5.4532  -5.3930  -5.1873  -5.0575  -4.4262  -4.3742  -4.0859  -3.7677
    -2.8423  -2.0199  -2.0002  -1.8190  -1.6328  -1.5771  -1.4905  -1.4746
    -1.3879  -1.3817  -1.3339  -0.8422   0.7064   0.9555   1.1034   1.1491
     1.2324   1.3804   1.4268   1.8022   1.8994   1.9164

          k =-0.1667-0.0962 0.0000 ( 59226 PWs)   bands (ev):

   -72.8819 -72.8748 -44.4306 -44.3584 -44.2820 -44.2749 -44.2558 -44.2487
   -21.3140 -20.5363 -20.3477 -20.3381 -19.9908 -19.9799 -19.8066 -18.7319
   -18.7213 -18.3767 -18.3683 -18.3555 -18.2707 -18.2620 -18.0795 -18.0709
   -12.5088 -12.5022 -12.4088 -11.5829 -11.5761 -11.4281 -11.4205 -10.9273
   -10.9241  -9.9307  -9.9264  -9.6764  -9.3757  -9.3730  -9.2313  -9.2286
    -9.0431  -9.0410  -8.9241  -8.3251  -8.3217  -7.9025  -7.9001  -7.8814
    -7.8458  -7.7712  -7.6115  -7.5809  -7.1378  -7.0903  -6.9601  -6.8893
    -6.8857  -6.8516  -6.5329  -6.5283  -6.2584  -5.3540  -5.3148  -5.1441
    -5.0662  -4.8099  -4.8007  -4.7490  -4.6162  -4.6079  -4.3561  -4.3300
    -2.8570  -2.0218  -1.9994  -1.8249  -1.6355  -1.5778  -1.4850  -1.4737
    -1.3846  -1.3797  -1.3281  -0.7502   0.7820   0.8457   1.0066   1.2104
     1.2602   1.3476   1.5827   1.6015   1.7294   1.9385

          k =-0.0000-0.1925 0.0000 ( 59226 PWs)   bands (ev):

   -72.8819 -72.8748 -44.4306 -44.3583 -44.2820 -44.2749 -44.2558 -44.2487
   -21.3141 -20.5313 -20.3545 -20.3402 -19.9879 -19.9753 -19.8101 -18.7313
   -18.7182 -18.3942 -18.3737 -18.3528 -18.2556 -18.2555 -18.0837 -18.0718
   -12.5101 -12.5011 -12.4087 -11.5849 -11.5757 -11.4271 -11.4183 -10.9288
   -10.9244  -9.9296  -9.9272  -9.6769  -9.3762  -9.3714  -9.2308  -9.2296
    -9.0430  -9.0413  -8.9248  -8.3245  -8.3214  -7.9014  -7.8995  -7.8644
    -7.8442  -7.7730  -7.6344  -7.5921  -7.1140  -7.0870  -6.9587  -6.8911
    -6.8856  -6.8634  -6.5333  -6.5271  -6.2590  -5.3449  -5.3155  -5.1443
    -5.0660  -4.8367  -4.8081  -4.7525  -4.5959  -4.5895  -4.3584  -4.3368
    -2.8611  -2.0227  -1.9997  -1.8243  -1.6342  -1.5780  -1.4853  -1.4737
    -1.3830  -1.3783  -1.3273  -0.7016   0.6661   0.8054   0.9961   1.1821
     1.2473   1.3794   1.5779   1.6184   1.6871   2.0014

          k = 0.5000-0.8660 0.0000 ( 59292 PWs)   bands (ev):

   -72.8819 -72.8748 -44.4307 -44.3584 -44.2820 -44.2750 -44.2557 -44.2487
   -21.0500 -21.0478 -20.4721 -20.4627 -19.4300 -19.4196 -19.4148 -19.4086
   -18.9926 -18.9902 -18.3259 -18.3213 -18.3173 -18.3147 -17.7963 -17.7876
   -12.0715 -12.0664 -12.0639 -12.0616 -11.8805 -11.8722 -11.3296 -11.3283
   -10.2369 -10.2311 -10.1371 -10.1335 -10.1303 -10.1260  -8.5903  -8.5509
    -8.5477  -8.5456  -8.5449  -8.5388  -7.8659  -7.8642  -7.8593  -7.8577
    -7.8261  -7.8199  -7.7838  -7.7520  -7.4906  -7.4875  -6.6138  -6.6069
    -6.3630  -6.3314  -6.3067  -6.2929  -6.1905  -6.1886  -5.7121  -5.6973
    -5.5463  -5.5429  -4.7294  -4.7203  -4.6969  -4.6923  -3.8915  -3.8656
    -2.8379  -2.0190  -1.9998  -1.8195  -1.6336  -1.5769  -1.4910  -1.4743
    -1.3897  -1.3830  -1.3350  -0.8789   0.7812   0.9972   1.1205   1.1650
     1.3639   1.5675   1.5847   1.6054   1.7311   1.7475

          k =-1.0000 0.0000 0.0000 ( 59292 PWs)   bands (ev):

   -72.8819 -72.8748 -44.4307 -44.3584 -44.2820 -44.2749 -44.2558 -44.2487
   -21.0749 -21.0200 -20.4768 -20.4628 -19.4248 -19.4216 -19.4203 -19.4002
   -19.0134 -18.9709 -18.3715 -18.3359 -18.2920 -18.2807 -17.7987 -17.7868
   -12.1026 -12.0817 -12.0398 -12.0351 -11.8825 -11.8710 -11.3511 -11.3092
   -10.2425 -10.2399 -10.1330 -10.1318 -10.1251 -10.1240  -8.6323  -8.5752
    -8.5583  -8.5282  -8.5176  -8.4914  -7.8758  -7.8698  -7.8611  -7.8605
    -7.8174  -7.8143  -7.7908  -7.7585  -7.5142  -7.4660  -6.6132  -6.6047
    -6.3573  -6.3288  -6.3093  -6.2792  -6.2090  -6.1729  -5.7383  -5.6780
    -5.5670  -5.5225  -4.7948  -4.7538  -4.6492  -4.6443  -3.8894  -3.8698
    -2.8551  -2.0216  -2.0005  -1.8174  -1.6305  -1.5777  -1.4902  -1.4744
    -1.3828  -1.3778  -1.3309  -0.7115   0.5516   0.7501   1.0677   1.1136
     1.1893   1.5473   1.5761   1.5996   1.6414   1.9389

 ------ SPIN DOWN ----------


          k = 0.1667 0.2887 0.0000 ( 59267 PWs)   bands (ev):

   -68.6831 -68.6749 -40.3630 -40.2769 -40.0996 -40.0911 -40.0531 -40.0446
   -21.2438 -20.6571 -20.6534 -20.1013 -20.0938 -19.5840 -19.5806 -19.0964
   -18.6934 -18.6886 -18.4545 -18.4475 -18.1911 -18.0822 -18.0759 -17.8465
   -12.4824 -12.2052 -12.1995 -11.8193 -11.8165 -11.6573 -11.1896 -11.1878
   -10.3900 -10.3660 -10.1156 -10.1133  -9.5871  -9.5867  -8.8250  -8.8208
    -8.8169  -8.7644  -8.7606  -8.5950  -8.1957  -8.0302  -8.0054  -7.8277
    -7.8255  -7.4363  -7.4347  -7.2642  -7.2458  -7.2065  -7.2050  -6.9597
    -6.9531  -6.5474  -6.5290  -6.1520  -6.1514  -5.8566  -5.4164  -5.2746
    -5.2627  -5.1984  -4.8986  -4.8888  -4.4913  -4.3428  -4.3317  -3.9668
    -1.4422   0.3784   0.8087   1.0102   1.1411   1.1953   1.2726   1.3522
     1.4291   1.4922   1.5543   1.6045   1.6308   1.7459   1.9078   1.9774
     2.0391   2.0882   2.1418   2.1842   2.2882   2.3331

          k = 0.1667-0.4811 0.0000 ( 59291 PWs)   bands (ev):

   -68.6831 -68.6749 -40.3630 -40.2769 -40.0995 -40.0911 -40.0531 -40.0446
   -21.1131 -20.9097 -20.7199 -20.1578 -19.8014 -19.4636 -19.3140 -19.1715
   -19.0113 -18.7758 -18.6372 -18.5419 -18.1444 -18.0879 -17.9189 -17.7207
   -12.3465 -12.1116 -12.0432 -11.9049 -11.6792 -11.6572 -11.5511 -10.9402
   -10.8882 -10.6216 -10.5215  -9.8582  -9.6917  -9.3341  -9.1093  -8.6459
    -8.6211  -8.5510  -8.3876  -8.3562  -8.1599  -8.1068  -8.0613  -8.0487
    -7.6868  -7.6218  -7.4925  -7.4729  -7.3396  -7.1688  -7.0662  -6.8458
    -6.6198  -6.3747  -6.1627  -6.1561  -5.9581  -5.9270  -5.7819  -5.7310
    -5.4498  -5.3835  -5.1883  -5.0335  -4.4253  -4.3422  -4.0764  -3.7548
    -1.4329   0.3660   0.8047   0.9710   1.0478   1.1413   1.2243   1.2868
     1.3765   1.4242   1.5681   1.7305   1.8010   1.8798   1.9086   2.0684
     2.1099   2.1370   2.1605   2.2211   2.3075   2.3315

          k = 0.1667-0.0962 0.0000 ( 59226 PWs)   bands (ev):

   -68.6831 -68.6749 -40.3630 -40.2769 -40.0996 -40.0911 -40.0531 -40.0446
   -21.3103 -20.5322 -20.3441 -20.3350 -19.9863 -19.9766 -19.8034 -18.7270
   -18.7177 -18.3719 -18.3647 -18.3519 -18.2662 -18.2582 -18.0757 -18.0678
   -12.5062 -12.5002 -12.4065 -11.5804 -11.5742 -11.4253 -11.4184 -10.9247
   -10.9218  -9.9280  -9.9242  -9.6737  -9.3732  -9.3707  -9.2282  -9.2259
    -9.0407  -9.0387  -8.9061  -8.3219  -8.3189  -7.8998  -7.8976  -7.8603
    -7.8420  -7.7689  -7.5954  -7.5708  -7.1135  -7.0797  -6.9575  -6.8868
    -6.8837  -6.8415  -6.5302  -6.5261  -6.2559  -5.3308  -5.3032  -5.1414
    -5.0635  -4.7917  -4.7847  -4.7377  -4.6024  -4.5951  -4.3406  -4.3209
    -1.4517   0.3927   0.8145   1.0037   1.1034   1.1638   1.2134   1.3287
     1.4716   1.5361   1.6014   1.6936   1.7821   1.8621   1.8935   1.9382
     1.9812   2.0569   2.1222   2.1344   2.2436   2.3042

          k =-0.5000-0.8660 0.0000 ( 59292 PWs)   bands (ev):

   -68.6831 -68.6749 -40.3630 -40.2769 -40.0996 -40.0911 -40.0530 -40.0446
   -21.0465 -21.0438 -20.4684 -20.4596 -19.4248 -19.4157 -19.4115 -19.4055
   -18.9892 -18.9863 -18.3202 -18.3183 -18.3157 -18.3090 -17.7920 -17.7840
   -12.0676 -12.0648 -12.0626 -12.0588 -11.8781 -11.8705 -11.3273 -11.3259
   -10.2340 -10.2290 -10.1338 -10.1308 -10.1277 -10.1238  -8.5631  -8.5452
    -8.5448  -8.5436  -8.5421  -8.5326  -7.8631  -7.8615  -7.8573  -7.8556
    -7.8223  -7.8167  -7.7668  -7.7415  -7.4889  -7.4847  -6.6107  -6.6048
    -6.3337  -6.3128  -6.2962  -6.2841  -6.1882  -6.1854  -5.6946  -5.6881
    -5.5440  -5.5399  -4.7080  -4.6982  -4.6891  -4.6864  -3.8751  -3.8558
    -1.4088   0.1273   0.8094   1.0617   1.0730   1.1586   1.2924   1.4253
     1.5158   1.5397   1.5909   1.7026   1.7604   1.8764   1.9219   1.9555
     1.9729   2.0504   2.1565   2.2161   2.3103   2.3383

          k =-0.1667 0.2887 0.0000 ( 59267 PWs)   bands (ev):

   -68.6831 -68.6749 -40.3630 -40.2769 -40.0996 -40.0911 -40.0531 -40.0446
   -21.2438 -20.6571 -20.6534 -20.1013 -20.0938 -19.5840 -19.5806 -19.0964
   -18.6934 -18.6886 -18.4545 -18.4474 -18.1911 -18.0823 -18.0759 -17.8465
   -12.4824 -12.2052 -12.1995 -11.8193 -11.8165 -11.6573 -11.1897 -11.1877
   -10.3900 -10.3660 -10.1156 -10.1133  -9.5871  -9.5866  -8.8250  -8.8207
    -8.8169  -8.7644  -8.7606  -8.5950  -8.1957  -8.0302  -8.0054  -7.8277
    -7.8254  -7.4363  -7.4347  -7.2643  -7.2458  -7.2065  -7.2050  -6.9598
    -6.9532  -6.5474  -6.5290  -6.1520  -6.1513  -5.8566  -5.4165  -5.2746
    -5.2627  -5.1983  -4.8986  -4.8888  -4.4913  -4.3428  -4.3317  -3.9668
    -1.4422   0.3784   0.8087   1.0102   1.1411   1.1953   1.2726   1.3522
     1.4291   1.4922   1.5542   1.6045   1.6308   1.7458   1.9078   1.9774
     2.0391   2.0882   2.1418   2.1841   2.2882   2.3331

          k = 0.3333 0.0000 0.0000 ( 59267 PWs)   bands (ev):

   -68.6831 -68.6749 -40.3630 -40.2769 -40.0996 -40.0911 -40.0531 -40.0446
   -21.2435 -20.6808 -20.6297 -20.1024 -20.0912 -19.6083 -19.5581 -19.0982
   -18.7083 -18.6693 -18.4578 -18.4458 -18.1871 -18.1029 -18.0610 -17.8458
   -12.4821 -12.2068 -12.1978 -11.8277 -11.8103 -11.6553 -11.2072 -11.1708
   -10.3892 -10.3657 -10.1276 -10.1016  -9.5933  -9.5794  -8.8320  -8.8204
    -8.8081  -8.7853  -8.7411  -8.5958  -8.1973  -8.0736  -7.9618  -7.8268
    -7.8245  -7.4417  -7.4288  -7.2729  -7.2331  -7.2156  -7.1958  -6.9622
    -6.9521  -6.5918  -6.4897  -6.1546  -6.1480  -5.8612  -5.4163  -5.2911
    -5.2388  -5.1987  -4.9050  -4.8842  -4.4848  -4.3673  -4.3163  -3.9658
    -1.4270   0.2083   0.8574   1.0063   1.1164   1.1772   1.2918   1.4413
     1.4762   1.4892   1.5533   1.7142   1.7712   1.8478   1.8951   1.9407
     2.0113   2.0837   2.1271   2.1841   2.2936   2.3194

          k =-0.1667-0.4811 0.0000 ( 59291 PWs)   bands (ev):

   -68.6831 -68.6749 -40.3630 -40.2769 -40.0995 -40.0911 -40.0531 -40.0446
   -21.1131 -20.9097 -20.7199 -20.1578 -19.8014 -19.4636 -19.3140 -19.1715
   -19.0114 -18.7758 -18.6372 -18.5419 -18.1444 -18.0879 -17.9189 -17.7207
   -12.3465 -12.1116 -12.0432 -11.9049 -11.6792 -11.6572 -11.5511 -10.9402
   -10.8882 -10.6216 -10.5215  -9.8581  -9.6917  -9.3342  -9.1093  -8.6459
    -8.6211  -8.5510  -8.3876  -8.3562  -8.1599  -8.1068  -8.0613  -8.0487
    -7.6868  -7.6218  -7.4924  -7.4729  -7.3396  -7.1688  -7.0662  -6.8457
    -6.6198  -6.3747  -6.1627  -6.1562  -5.9581  -5.9269  -5.7819  -5.7310
    -5.4498  -5.3835  -5.1883  -5.0335  -4.4253  -4.3422  -4.0764  -3.7548
    -1.4329   0.3660   0.8047   0.9710   1.0478   1.1413   1.2243   1.2868
     1.3765   1.4242   1.5681   1.7305   1.8010   1.8798   1.9086   2.0683
     2.1099   2.1369   2.1605   2.2211   2.3081   2.3316

          k = 0.5000-0.0962 0.0000 ( 59291 PWs)   bands (ev):

   -68.6831 -68.6749 -40.3630 -40.2769 -40.0996 -40.0911 -40.0531 -40.0446
   -21.1107 -20.9163 -20.7156 -20.1561 -19.8015 -19.4654 -19.3190 -19.1672
   -19.0122 -18.7767 -18.6281 -18.5473 -18.1335 -18.1024 -17.9165 -17.7204
   -12.3455 -12.1121 -12.0413 -11.9086 -11.6905 -11.6436 -11.5532 -10.9406
   -10.8862 -10.6200 -10.5238  -9.8561  -9.6923  -9.3350  -9.1088  -8.6385
    -8.6215  -8.5492  -8.3919  -8.3777  -8.1581  -8.0927  -8.0733  -8.0379
    -7.6832  -7.6223  -7.4916  -7.4740  -7.3350  -7.1701  -7.0669  -6.8453
    -6.6202  -6.3805  -6.1750  -6.1557  -5.9472  -5.9264  -5.7812  -5.7330
    -5.4508  -5.3843  -5.1714  -5.0438  -4.4075  -4.3642  -4.0739  -3.7544
    -1.4089   0.1290   0.8102   1.0324   1.0649   1.1466   1.2166   1.2931
     1.4255   1.5981   1.6881   1.8014   1.8601   1.9191   1.9515   1.9922
     2.0282   2.1069   2.1988   2.2353   2.2970   2.3474

          k =-0.3333-0.3849 0.0000 ( 59291 PWs)   bands (ev):

   -68.6831 -68.6749 -40.3630 -40.2769 -40.0995 -40.0911 -40.0531 -40.0446
   -21.1116 -20.9140 -20.7172 -20.1559 -19.8033 -19.4636 -19.3146 -19.1704
   -19.0148 -18.7752 -18.6294 -18.5466 -18.1358 -18.0997 -17.9166 -17.7205
   -12.3460 -12.1102 -12.0435 -11.9076 -11.6802 -11.6551 -11.5522 -10.9404
   -10.8859 -10.6194 -10.5245  -9.8567  -9.6924  -9.3346  -9.1096  -8.6407
    -8.6204  -8.5509  -8.3889  -8.3701  -8.1595  -8.0981  -8.0612  -8.0510
    -7.6835  -7.6209  -7.4976  -7.4685  -7.3341  -7.1701  -7.0674  -6.8510
    -6.6184  -6.3753  -6.1636  -6.1573  -5.9557  -5.9254  -5.7814  -5.7395
    -5.4507  -5.3805  -5.1723  -5.0439  -4.4097  -4.3619  -4.0736  -3.7546
    -1.4171   0.1954   0.7967   1.0247   1.0598   1.1652   1.2159   1.3025
     1.4077   1.5186   1.6844   1.7764   1.8474   1.9060   1.9449   2.0043
     2.0601   2.0821   2.1425   2.2165   2.3105   2.3363

          k = 0.5000 0.0962 0.0000 ( 59291 PWs)   bands (ev):

   -68.6831 -68.6749 -40.3630 -40.2769 -40.0996 -40.0911 -40.0531 -40.0446
   -21.1107 -20.9163 -20.7156 -20.1561 -19.8015 -19.4654 -19.3190 -19.1672
   -19.0122 -18.7767 -18.6281 -18.5473 -18.1336 -18.1024 -17.9165 -17.7204
   -12.3455 -12.1121 -12.0413 -11.9087 -11.6904 -11.6435 -11.5532 -10.9405
   -10.8862 -10.6200 -10.5238  -9.8561  -9.6923  -9.3350  -9.1087  -8.6385
    -8.6215  -8.5492  -8.3919  -8.3777  -8.1581  -8.0927  -8.0732  -8.0379
    -7.6832  -7.6222  -7.4916  -7.4741  -7.3350  -7.1701  -7.0669  -6.8453
    -6.6201  -6.3805  -6.1749  -6.1556  -5.9473  -5.9263  -5.7813  -5.7330
    -5.4508  -5.3843  -5.1714  -5.0438  -4.4075  -4.3642  -4.0739  -3.7544
    -1.4089   0.1290   0.8102   1.0324   1.0649   1.1466   1.2166   1.2931
     1.4255   1.5981   1.6881   1.8013   1.8601   1.9191   1.9515   1.9922
     2.0282   2.1069   2.1988   2.2352   2.2974   2.3474

          k =-0.3333 0.3849 0.0000 ( 59291 PWs)   bands (ev):

   -68.6831 -68.6749 -40.3630 -40.2769 -40.0995 -40.0911 -40.0531 -40.0446
   -21.1116 -20.9140 -20.7172 -20.1559 -19.8033 -19.4636 -19.3146 -19.1704
   -19.0148 -18.7752 -18.6293 -18.5466 -18.1358 -18.0997 -17.9166 -17.7205
   -12.3460 -12.1102 -12.0435 -11.9076 -11.6802 -11.6552 -11.5522 -10.9405
   -10.8859 -10.6194 -10.5245  -9.8567  -9.6923  -9.3345  -9.1096  -8.6407
    -8.6205  -8.5509  -8.3889  -8.3701  -8.1596  -8.0981  -8.0612  -8.0510
    -7.6834  -7.6209  -7.4977  -7.4684  -7.3342  -7.1701  -7.0675  -6.8510
    -6.6184  -6.3753  -6.1636  -6.1574  -5.9557  -5.9255  -5.7813  -5.7395
    -5.4506  -5.3805  -5.1723  -5.0439  -4.4098  -4.3619  -4.0736  -3.7546
    -1.4171   0.1954   0.7967   1.0246   1.0598   1.1652   1.2159   1.3025
     1.4077   1.5186   1.6844   1.7764   1.8474   1.9060   1.9449   2.0043
     2.0601   2.0822   2.1426   2.2166   2.3104   2.3363

          k =-0.1667-0.0962 0.0000 ( 59226 PWs)   bands (ev):

   -68.6831 -68.6749 -40.3630 -40.2769 -40.0996 -40.0911 -40.0531 -40.0446
   -21.3103 -20.5322 -20.3441 -20.3350 -19.9863 -19.9766 -19.8034 -18.7270
   -18.7177 -18.3719 -18.3647 -18.3519 -18.2662 -18.2582 -18.0757 -18.0678
   -12.5062 -12.5002 -12.4065 -11.5803 -11.5742 -11.4253 -11.4184 -10.9247
   -10.9218  -9.9280  -9.9242  -9.6737  -9.3732  -9.3706  -9.2282  -9.2260
    -9.0407  -9.0387  -8.9061  -8.3220  -8.3189  -7.8998  -7.8976  -7.8603
    -7.8420  -7.7690  -7.5954  -7.5708  -7.1135  -7.0797  -6.9576  -6.8868
    -6.8836  -6.8415  -6.5302  -6.5261  -6.2560  -5.3309  -5.3032  -5.1413
    -5.0636  -4.7916  -4.7847  -4.7377  -4.6024  -4.5951  -4.3406  -4.3209
    -1.4517   0.3927   0.8145   1.0037   1.1034   1.1638   1.2134   1.3287
     1.4717   1.5361   1.6014   1.6936   1.7821   1.8621   1.8935   1.9382
     1.9812   2.0569   2.1223   2.1344   2.2435   2.3042

          k =-0.0000-0.1925 0.0000 ( 59226 PWs)   bands (ev):

   -68.6831 -68.6749 -40.3630 -40.2768 -40.0996 -40.0911 -40.0531 -40.0446
   -21.3104 -20.5278 -20.3500 -20.3368 -19.9840 -19.9723 -19.8065 -18.7267
   -18.7148 -18.3878 -18.3685 -18.3493 -18.2536 -18.2525 -18.0795 -18.0683
   -12.5078 -12.4988 -12.4063 -11.5823 -11.5737 -11.4248 -11.4161 -10.9261
   -10.9221  -9.9273  -9.9248  -9.6740  -9.3735  -9.3693  -9.2281  -9.2267
    -9.0406  -9.0391  -8.9065  -8.3217  -8.3184  -7.8990  -7.8973  -7.8507
    -7.8380  -7.7704  -7.6104  -7.5798  -7.0982  -7.0758  -6.9563  -6.8885
    -6.8833  -6.8500  -6.5307  -6.5249  -6.2565  -5.3255  -5.3026  -5.1415
    -5.0633  -4.8120  -4.7902  -4.7387  -4.5883  -4.5818  -4.3432  -4.3246
    -1.4588   0.5271   0.7750   0.9852   1.1182   1.1531   1.2086   1.3064
     1.4507   1.4796   1.5235   1.6263   1.7309   1.8461   1.9291   1.9464
     2.0566   2.0735   2.1563   2.1667   2.1855   2.3125

          k = 0.5000-0.8660 0.0000 ( 59292 PWs)   bands (ev):

   -68.6831 -68.6749 -40.3630 -40.2769 -40.0996 -40.0911 -40.0530 -40.0446
   -21.0465 -21.0438 -20.4684 -20.4596 -19.4248 -19.4156 -19.4115 -19.4055
   -18.9892 -18.9862 -18.3202 -18.3183 -18.3157 -18.3089 -17.7920 -17.7840
   -12.0676 -12.0648 -12.0627 -12.0588 -11.8780 -11.8705 -11.3273 -11.3258
   -10.2340 -10.2290 -10.1338 -10.1308 -10.1277 -10.1238  -8.5631  -8.5453
    -8.5448  -8.5435  -8.5420  -8.5326  -7.8631  -7.8615  -7.8572  -7.8556
    -7.8224  -7.8167  -7.7668  -7.7415  -7.4889  -7.4847  -6.6106  -6.6047
    -6.3337  -6.3128  -6.2962  -6.2841  -6.1882  -6.1853  -5.6946  -5.6882
    -5.5441  -5.5400  -4.7079  -4.6982  -4.6891  -4.6864  -3.8751  -3.8558
    -1.4088   0.1273   0.8094   1.0617   1.0730   1.1586   1.2924   1.4253
     1.5158   1.5396   1.5909   1.7027   1.7604   1.8764   1.9219   1.9555
     1.9729   2.0504   2.1566   2.2161   2.3104   2.3383

          k =-1.0000 0.0000 0.0000 ( 59292 PWs)   bands (ev):

   -68.6831 -68.6749 -40.3630 -40.2769 -40.0996 -40.0911 -40.0531 -40.0445
   -21.0696 -21.0182 -20.4725 -20.4596 -19.4209 -19.4171 -19.4166 -19.3975
   -19.0076 -18.9691 -18.3638 -18.3296 -18.2907 -18.2800 -17.7942 -17.7832
   -12.0990 -12.0785 -12.0384 -12.0343 -11.8801 -11.8692 -11.3474 -11.3077
   -10.2396 -10.2368 -10.1301 -10.1294 -10.1225 -10.1223  -8.6023  -8.5709
    -8.5554  -8.5270  -8.5168  -8.4877  -7.8725  -7.8666  -7.8581  -7.8580
    -7.8122  -7.8115  -7.7731  -7.7465  -7.5106  -7.4649  -6.6105  -6.6027
    -6.3324  -6.3116  -6.2976  -6.2717  -6.2050  -6.1710  -5.7196  -5.6675
    -5.5629  -5.5213  -4.7646  -4.7310  -4.6465  -4.6421  -3.8748  -3.8577
    -1.4404   0.4870   0.8314   0.9486   1.0424   1.1415   1.2286   1.2725
     1.3666   1.4931   1.5847   1.6419   1.6714   1.8017   1.8716   1.8924
     2.1315   2.1326   2.1542   2.1816   2.3202   2.3326

     the Fermi energy is    -1.1790 ev

!    total energy              =   -1133.82802284 Ry

     total all-electron energy =     -6753.503726 Ry
     estimated scf accuracy    <       0.00000001 Ry
     smearing contrib. (-TS)   =      -0.00000000 Ry
     internal energy E=F+TS    =   -1133.82802284 Ry

     The total energy is F=E-TS. E is the sum of the following terms:
     one-electron contribution =   -3951.66313495 Ry
     hartree contribution      =    2004.02059539 Ry
     xc contribution           =    -186.01795095 Ry
     ewald contribution        =    1359.20967671 Ry
     DFT-D3 Dispersion         =      -0.13473390 Ry
     one-center paw contrib.   =    -359.24247515 Ry

     total magnetization       =    10.00 Bohr mag/cell
     absolute magnetization    =    10.01 Bohr mag/cell

     convergence has been achieved in  15 iterations

     Writing output data file ./mytmp/Crdimer0.143-0.5.save/
 
     init_run     :     18.45s CPU     19.68s WALL (       1 calls)
     electrons    :    635.60s CPU    724.33s WALL (       1 calls)

     Called by init_run:
     wfcinit      :     13.52s CPU     14.18s WALL (       1 calls)
     potinit      :      1.47s CPU      1.55s WALL (       1 calls)
     hinit0       :      1.52s CPU      1.59s WALL (       1 calls)

     Called by electrons:
     c_bands      :    505.65s CPU    566.98s WALL (      15 calls)
     sum_band     :     92.99s CPU    111.35s WALL (      15 calls)
     v_of_rho     :      8.51s CPU      9.72s WALL (      16 calls)
     newd         :     19.86s CPU     27.47s WALL (      16 calls)
     PAW_pot      :      7.94s CPU      8.05s WALL (      16 calls)
     mix_rho      :      1.05s CPU      1.32s WALL (      15 calls)

     Called by c_bands:
     init_us_2    :      5.36s CPU      5.41s WALL (     930 calls)
     cegterg      :    491.62s CPU    552.69s WALL (     450 calls)

     Called by *egterg:
     cdiaghg      :     30.55s CPU     48.54s WALL (    2955 calls)
     h_psi        :    286.64s CPU    323.91s WALL (    2985 calls)
     s_psi        :     28.68s CPU     29.10s WALL (    2985 calls)
     g_psi        :      0.79s CPU      0.82s WALL (    2505 calls)

     Called by h_psi:
     h_psi:calbec :     34.69s CPU     36.29s WALL (    2985 calls)
     vloc_psi     :    219.98s CPU    254.81s WALL (    2985 calls)
     add_vuspsi   :     29.43s CPU     30.19s WALL (    2985 calls)

     General routines
     calbec       :     45.88s CPU     47.86s WALL (    3435 calls)
     fft          :     10.72s CPU     16.24s WALL (     394 calls)
     ffts         :      0.14s CPU      0.18s WALL (      62 calls)
     fftw         :    231.77s CPU    271.96s WALL (  267194 calls)
     interpolate  :      0.49s CPU      0.59s WALL (      32 calls)
 
     Parallel routines
     fft_scatt_xy :     33.27s CPU     34.81s WALL (  267650 calls)
     fft_scatt_yz :    114.03s CPU    153.45s WALL (  267650 calls)
 
     PWSCF        :  10m56.03s CPU  12m28.69s WALL

 
   This run was terminated on:  15:44: 7   2Apr2021            

=------------------------------------------------------------------------------=
   JOB DONE.
=------------------------------------------------------------------------------=
