
     Program PWSCF v.6.7MaX starts on  2Apr2021 at 13:31: 9 

     This program is part of the open-source Quantum ESPRESSO suite
     for quantum simulation of materials; please cite
         "P. Giannozzi et al., J. Phys.:Condens. Matter 21 395502 (2009);
         "P. Giannozzi et al., J. Phys.:Condens. Matter 29 465901 (2017);
          URL http://www.quantum-espresso.org", 
     in publications or presentations arising from this work. More details at
     http://www.quantum-espresso.org/quote

     Parallel version (MPI), running on    48 processors

     MPI processes distributed on     1 nodes
     R & G space division:  proc/nbgrp/npool/nimage =      48
     Reading input from Crdimer0.1415-0.5.scf.in

     Current dimensions of program PWSCF are:
     Max number of different atomic species (ntypx) = 10
     Max number of k-points (npk) =  40000
     Max angular momentum in pseudopotentials (lmaxx) =  3
     file N.pbe-n-kjpaw_psl.1.0.0.UPF: wavefunction(s)  2S renormalized
     file Cr.pbe-spn-kjpaw_psl.1.0.0.UPF: wavefunction(s)  3S 3P 3D renormalized
     file Cr.pbe-spn-kjpaw_psl.1.0.0.UPF: wavefunction(s)  3S 3P 3D renormalized

     --------------------------------------------
     Parameters for DFT-D3 Dispersion Correction:
     --------------------------------------------
       Reference C6 values for interpolation: 

         atom   Coordination number   C6
         B          0.000           214.36
         B          0.971           150.74
         B          1.944           106.23
         B          2.913            62.89
         B          4.586            56.06
         N          0.000            50.54
         N          0.994            44.25
         N          2.014            39.35
         N          2.990            31.16
         Cr1        0.000          1381.48
         Cr1        1.827           571.38
         Cr1       10.619           306.69
         Cr2        0.000          1381.48
         Cr2        1.827           571.38
         Cr2       10.619           306.69

       Values used:

         atom   Coordination number  R0_AB[au]  C6      C8
         B          3.336            3.039     62.89   2505.99
         B          3.340            3.039     62.89   2505.88
         B          3.335            3.039     62.89   2506.01
         B          3.335            3.039     62.89   2506.01
         B          3.340            3.039     62.89   2505.88
         B          3.336            3.039     62.89   2505.99
         N          3.134            2.478     31.22    688.69
         N          3.158            2.478     31.21    688.49
         N          3.134            2.478     31.22    688.69
         N          3.134            2.478     31.22    688.70
         N          3.142            2.478     31.21    688.62
         N          3.136            2.478     31.22    688.68
         N          3.140            2.478     31.22    688.64
         N          3.135            2.478     31.22    688.69
         N          3.134            2.478     31.22    688.70
         B          3.359            3.039     62.88   2505.38
         B          3.340            3.039     62.89   2505.88
         B          3.336            3.039     62.89   2505.99
         B          3.340            3.039     62.89   2505.88
         B          3.336            3.039     62.89   2505.99
         B          3.359            3.039     62.88   2505.38
         N          3.140            2.478     31.22    688.64
         B          3.336            3.039     62.89   2505.99
         B          3.365            3.039     62.87   2505.20
         B          3.335            3.039     62.89   2506.01
         N          3.136            2.478     31.22    688.68
         N          3.158            2.478     31.21    688.49
         N          3.135            2.478     31.22    688.69
         N          3.135            2.478     31.22    688.69
         N          3.134            2.478     31.22    688.69
         N          3.134            2.478     31.22    688.70
         B          3.335            3.039     62.89   2506.01
         Cr1        0.731            3.252   1314.38 121302.46
         Cr2        0.731            3.252   1314.38 121302.47

         Molecular C6 ( Ry / a.u.^6 ) =     78392.55


     Subspace diagonalization in iterative solution of the eigenvalue problem:
     one sub-group per band group will be used
     scalapack distributed-memory algorithm (size of sub-group:  6*  6 procs)

 
     Parallelization info
     --------------------
     sticks:   dense  smooth     PW     G-vecs:    dense   smooth      PW
     Min         235      98     26                36277     9874    1408
     Max         236      99     27                36282     9883    1425
     Sum       11311    4741   1285              1741401   474235   68095
 


     bravais-lattice index     =            4
     lattice parameter (alat)  =      18.9275  a.u.
     unit-cell volume          =   10553.3021 (a.u.)^3
     number of atoms/cell      =           34
     number of atomic types    =            4
     number of electrons       =       156.00
     number of Kohn-Sham states=           94
     kinetic-energy cutoff     =      48.0000  Ry
     charge density cutoff     =     457.0000  Ry
     scf convergence threshold =      1.0E-07
     mixing beta               =       0.5000
     number of iterations used =            8  plain     mixing
     Exchange-correlation= SLA  PW   PBX  PBC
                           (   1   4   3   4   0   0   0)

     celldm(1)=  18.927497  celldm(2)=   0.000000  celldm(3)=   1.797125
     celldm(4)=   0.000000  celldm(5)=   0.000000  celldm(6)=   0.000000

     crystal axes: (cart. coord. in units of alat)
               a(1) = (   1.000000   0.000000   0.000000 )  
               a(2) = (  -0.500000   0.866025   0.000000 )  
               a(3) = (   0.000000   0.000000   1.797125 )  

     reciprocal axes: (cart. coord. in units 2 pi/alat)
               b(1) = (  1.000000  0.577350  0.000000 )  
               b(2) = (  0.000000  1.154701  0.000000 )  
               b(3) = (  0.000000  0.000000  0.556444 )  


     PseudoPot. # 1 for B  read from file:
     /home/sf05/q-e-qe-6.7MaX-Release/pseudo/B.pbe-n-kjpaw_psl.1.0.0.UPF
     MD5 check sum: d9c678ba5d3b2fd7b74e61139c9288d8
     Pseudo is Projector augmented-wave + core cor, Zval =  3.0
     Generated using "atomic" code by A. Dal Corso  v.5.1.2
     Shape of augmentation charge: PSQ
     Using radial grid of 1059 points,  4 beta functions with: 
                l(1) =   0
                l(2) =   0
                l(3) =   1
                l(4) =   1
     Q(r) pseudized with 0 coefficients 


     PseudoPot. # 2 for N  read from file:
     /home/sf05/q-e-qe-6.7MaX-Release/pseudo/N.pbe-n-kjpaw_psl.1.0.0.UPF
     MD5 check sum: e0e4e94a9c4025c5b51bd7d8793849bd
     Pseudo is Projector augmented-wave + core cor, Zval =  5.0
     Generated using "atomic" code by A. Dal Corso  v.5.1.2
     Shape of augmentation charge: PSQ
     Using radial grid of 1085 points,  4 beta functions with: 
                l(1) =   0
                l(2) =   0
                l(3) =   1
                l(4) =   1
     Q(r) pseudized with 0 coefficients 


     PseudoPot. # 3 for Cr read from file:
     /home/sf05/q-e-qe-6.7MaX-Release/pseudo/Cr.pbe-spn-kjpaw_psl.1.0.0.UPF
     MD5 check sum: 198f1a2427a48552563eee314eba32ba
     Pseudo is Projector augmented-wave + core cor, Zval = 14.0
     Generated using &quot;atomic&quot; code by A. Dal Corso  v.6.3
     Shape of augmentation charge: PSQ
     Using radial grid of 1183 points,  6 beta functions with: 
                l(1) =   0
                l(2) =   0
                l(3) =   1
                l(4) =   1
                l(5) =   2
                l(6) =   2
     Q(r) pseudized with 0 coefficients 


     PseudoPot. # 4 for Cr read from file:
     /home/sf05/q-e-qe-6.7MaX-Release/pseudo/Cr.pbe-spn-kjpaw_psl.1.0.0.UPF
     MD5 check sum: 198f1a2427a48552563eee314eba32ba
     Pseudo is Projector augmented-wave + core cor, Zval = 14.0
     Generated using &quot;atomic&quot; code by A. Dal Corso  v.6.3
     Shape of augmentation charge: PSQ
     Using radial grid of 1183 points,  6 beta functions with: 
                l(1) =   0
                l(2) =   0
                l(3) =   1
                l(4) =   1
                l(5) =   2
                l(6) =   2
     Q(r) pseudized with 0 coefficients 


     atomic species   valence    mass     pseudopotential
        B              3.00    10.81100     B ( 1.00)
        N              5.00    14.00674     N ( 1.00)
        Cr1           14.00    51.99610     Cr( 1.00)
        Cr2           14.00    51.99610     Cr( 1.00)

     Starting magnetic structure 
     atomic species   magnetization
        B            0.000
        N            0.000
        Cr1          1.000
        Cr2          1.000

     No symmetry found



   Cartesian axes

     site n.     atom                  positions (alat units)
         1           B   tau(   1) = (  -0.1250000   0.2165064   0.8985623  )
         2           B   tau(   2) = (   0.3750000   0.6495191   0.8985623  )
         3           B   tau(   3) = (   0.2500000   0.0000000   0.8985623  )
         4           B   tau(   4) = (   0.7500000   0.0000000   0.8985623  )
         5           B   tau(   5) = (   0.1250000   0.2165064   0.8985623  )
         6           B   tau(   6) = (  -0.3750000   0.6495191   0.8985623  )
         7           N   tau(   7) = (   0.7500005   0.2886748   0.8985623  )
         8           N   tau(   8) = (   0.3750005   0.5051812   0.8985623  )
         9           N   tau(   9) = (   0.3750005   0.0721685   0.8985623  )
        10           N   tau(  10) = (   0.6250005   0.0721685   0.8985623  )
        11           N   tau(  11) = (   0.2500005   0.2886748   0.8985623  )
        12           N   tau(  12) = (   0.6250005   0.5051812   0.8985623  )
        13           N   tau(  13) = (   0.0000005   0.2886748   0.8985623  )
        14           N   tau(  14) = (   0.2500005   0.7216875   0.8985623  )
        15           N   tau(  15) = (  -0.2499995   0.7216875   0.8985623  )
        16           B   tau(  16) = (   0.0000000   0.4330127   0.8985623  )
        17           B   tau(  17) = (   0.1250000   0.6495191   0.8985623  )
        18           B   tau(  18) = (  -0.1250000   0.6495191   0.8985623  )
        19           B   tau(  19) = (   0.3750000   0.2165064   0.8985623  )
        20           B   tau(  20) = (   0.6250000   0.2165064   0.8985623  )
        21           B   tau(  21) = (   0.5000000   0.4330127   0.8985623  )
        22           N   tau(  22) = (   0.5000005   0.2886748   0.8985623  )
        23           B   tau(  23) = (  -0.2500000   0.4330127   0.8985623  )
        24           B   tau(  24) = (   0.2500000   0.4330127   0.8985623  )
        25           B   tau(  25) = (   0.5000000   0.0000000   0.8985623  )
        26           N   tau(  26) = (  -0.1249995   0.5051812   0.8985623  )
        27           N   tau(  27) = (   0.1250005   0.5051812   0.8985623  )
        28           N   tau(  28) = (   0.0000005   0.7216875   0.8985623  )
        29           N   tau(  29) = (   0.5000005   0.7216875   0.8985623  )
        30           N   tau(  30) = (   0.1250005   0.0721685   0.8985623  )
        31           N   tau(  31) = (   0.8750005   0.0721685   0.8985623  )
        32           B   tau(  32) = (   0.0000000   0.0000000   0.8985623  )
        33           Cr1 tau(  33) = (   0.3915000   0.4330127   1.2040735  )
        34           Cr2 tau(  34) = (   0.1085000   0.4330127   1.2040735  )

     number of k points=    15  Gaussian smearing, width (Ry)=  0.0000
                       cart. coord. in units 2pi/alat
        k(    1) = (   0.1666667   0.2886751   0.0000000), wk =   0.0740741
        k(    2) = (   0.1666667  -0.4811252   0.0000000), wk =   0.0740741
        k(    3) = (   0.1666667  -0.0962250   0.0000000), wk =   0.0740741
        k(    4) = (  -0.5000000  -0.8660254   0.0000000), wk =   0.0370370
        k(    5) = (  -0.1666667   0.2886751   0.0000000), wk =   0.0740741
        k(    6) = (   0.3333333   0.0000000   0.0000000), wk =   0.0740741
        k(    7) = (  -0.1666667  -0.4811252   0.0000000), wk =   0.0740741
        k(    8) = (   0.5000000  -0.0962250   0.0000000), wk =   0.0740741
        k(    9) = (  -0.3333333  -0.3849002   0.0000000), wk =   0.0740741
        k(   10) = (   0.5000000   0.0962250   0.0000000), wk =   0.0740741
        k(   11) = (  -0.3333333   0.3849002   0.0000000), wk =   0.0740741
        k(   12) = (  -0.1666667  -0.0962250   0.0000000), wk =   0.0740741
        k(   13) = (  -0.0000000  -0.1924501   0.0000000), wk =   0.0740741
        k(   14) = (   0.5000000  -0.8660254   0.0000000), wk =   0.0370370
        k(   15) = (  -1.0000000   0.0000000   0.0000000), wk =   0.0370370

     Dense  grid:  1741401 G-vectors     FFT dimensions: ( 135, 135, 240)

     Smooth grid:   474235 G-vectors     FFT dimensions: (  90,  90, 160)

     Estimated max dynamical RAM per process >     218.62 MB

     Estimated total dynamical RAM >      10.25 GB
     Generating pointlists ...
     new r_m :   0.0595 (alat units)  1.1269 (a.u.) for type    1
     new r_m :   0.0595 (alat units)  1.1269 (a.u.) for type    2
     new r_m :   0.1167 (alat units)  2.2095 (a.u.) for type    3
     new r_m :   0.1167 (alat units)  2.2095 (a.u.) for type    4

     Initial potential from superposition of free atoms

     starting charge  155.99382, renormalised to  156.00000

     negative rho (up, down):  6.712E-03 4.655E-04
     Starting wfcs are  148 randomized atomic wfcs
     Checking if some PAW data can be deallocated... 

     total cpu time spent up to now is       19.7 secs

     Self-consistent Calculation

     iteration #  1     ecut=    48.00 Ry     beta= 0.50
     Davidson diagonalization with overlap
     ethr =  1.00E-02,  avg # of iterations =  2.8

     negative rho (up, down):  4.897E-03 2.911E-03

     total cpu time spent up to now is       60.2 secs

     total energy              =   -1130.73795890 Ry
     estimated scf accuracy    <      11.36430924 Ry

     total magnetization       =    12.00 Bohr mag/cell
     absolute magnetization    =    12.12 Bohr mag/cell

     iteration #  2     ecut=    48.00 Ry     beta= 0.50
     Davidson diagonalization with overlap
     ethr =  7.28E-03,  avg # of iterations =  2.8

     negative rho (up, down):  8.760E-03 7.894E-03

     total cpu time spent up to now is       97.5 secs

     total energy              =   -1132.93579801 Ry
     estimated scf accuracy    <       3.72811896 Ry

     total magnetization       =    10.00 Bohr mag/cell
     absolute magnetization    =    10.07 Bohr mag/cell

     iteration #  3     ecut=    48.00 Ry     beta= 0.50
     Davidson diagonalization with overlap
     ethr =  2.39E-03,  avg # of iterations =  6.9

     negative rho (up, down):  4.078E-03 3.880E-03

     total cpu time spent up to now is      135.4 secs

     total energy              =   -1133.56901507 Ry
     estimated scf accuracy    <       0.84241740 Ry

     total magnetization       =    11.19 Bohr mag/cell
     absolute magnetization    =    11.25 Bohr mag/cell

     iteration #  4     ecut=    48.00 Ry     beta= 0.50
     Davidson diagonalization with overlap
     ethr =  5.40E-04,  avg # of iterations =  6.2

     negative rho (up, down):  7.200E-03 7.585E-03

     total cpu time spent up to now is      171.1 secs

     total energy              =   -1133.77301128 Ry
     estimated scf accuracy    <       0.48760087 Ry

     total magnetization       =    10.00 Bohr mag/cell
     absolute magnetization    =    10.01 Bohr mag/cell

     iteration #  5     ecut=    48.00 Ry     beta= 0.50
     Davidson diagonalization with overlap
     ethr =  3.13E-04,  avg # of iterations =  6.0

     negative rho (up, down):  4.666E-03 4.387E-03

     total cpu time spent up to now is      208.8 secs

     total energy              =   -1133.80937819 Ry
     estimated scf accuracy    <       0.09815124 Ry

     total magnetization       =    10.00 Bohr mag/cell
     absolute magnetization    =    10.01 Bohr mag/cell

     iteration #  6     ecut=    48.00 Ry     beta= 0.50
     Davidson diagonalization with overlap
     ethr =  6.29E-05,  avg # of iterations =  7.3

     negative rho (up, down):  3.719E-03 3.942E-03

     total cpu time spent up to now is      248.6 secs

     total energy              =   -1133.82325136 Ry
     estimated scf accuracy    <       0.02208250 Ry

     total magnetization       =    10.00 Bohr mag/cell
     absolute magnetization    =    10.02 Bohr mag/cell

     iteration #  7     ecut=    48.00 Ry     beta= 0.50
     Davidson diagonalization with overlap
     ethr =  1.42E-05,  avg # of iterations =  9.5

     negative rho (up, down):  3.299E-03 3.796E-03

     total cpu time spent up to now is      288.3 secs

     total energy              =   -1133.82725579 Ry
     estimated scf accuracy    <       0.00400711 Ry

     total magnetization       =    10.00 Bohr mag/cell
     absolute magnetization    =    10.01 Bohr mag/cell

     iteration #  8     ecut=    48.00 Ry     beta= 0.50
     Davidson diagonalization with overlap
     ethr =  2.57E-06,  avg # of iterations =  7.5

     negative rho (up, down):  3.206E-03 3.782E-03

     total cpu time spent up to now is      327.1 secs

     total energy              =   -1133.82812066 Ry
     estimated scf accuracy    <       0.00044812 Ry

     total magnetization       =    10.00 Bohr mag/cell
     absolute magnetization    =    10.01 Bohr mag/cell

     iteration #  9     ecut=    48.00 Ry     beta= 0.50
     Davidson diagonalization with overlap
     ethr =  2.87E-07,  avg # of iterations =  3.7

     negative rho (up, down):  3.145E-03 3.775E-03

     total cpu time spent up to now is      360.2 secs

     total energy              =   -1133.82826111 Ry
     estimated scf accuracy    <       0.00007469 Ry

     total magnetization       =    10.00 Bohr mag/cell
     absolute magnetization    =    10.01 Bohr mag/cell

     iteration # 10     ecut=    48.00 Ry     beta= 0.50
     Davidson diagonalization with overlap
     ethr =  4.79E-08,  avg # of iterations =  4.0

     negative rho (up, down):  3.132E-03 3.788E-03

     total cpu time spent up to now is      399.2 secs

     total energy              =   -1133.82831601 Ry
     estimated scf accuracy    <       0.00001656 Ry

     total magnetization       =    10.00 Bohr mag/cell
     absolute magnetization    =    10.01 Bohr mag/cell

     iteration # 11     ecut=    48.00 Ry     beta= 0.50
     Davidson diagonalization with overlap
     ethr =  1.06E-08,  avg # of iterations =  4.3

     negative rho (up, down):  3.121E-03 3.794E-03

     total cpu time spent up to now is      435.4 secs

     total energy              =   -1133.82833191 Ry
     estimated scf accuracy    <       0.00000561 Ry

     total magnetization       =    10.00 Bohr mag/cell
     absolute magnetization    =    10.01 Bohr mag/cell

     iteration # 12     ecut=    48.00 Ry     beta= 0.50
     Davidson diagonalization with overlap
     ethr =  3.60E-09,  avg # of iterations =  4.1

     negative rho (up, down):  3.117E-03 3.803E-03

     total cpu time spent up to now is      467.8 secs

     total energy              =   -1133.82833655 Ry
     estimated scf accuracy    <       0.00000101 Ry

     total magnetization       =    10.00 Bohr mag/cell
     absolute magnetization    =    10.01 Bohr mag/cell

     iteration # 13     ecut=    48.00 Ry     beta= 0.50
     Davidson diagonalization with overlap
     ethr =  6.50E-10,  avg # of iterations =  4.9

     negative rho (up, down):  3.114E-03 3.807E-03

     total cpu time spent up to now is      501.8 secs

     total energy              =   -1133.82833853 Ry
     estimated scf accuracy    <       0.00000035 Ry

     total magnetization       =    10.00 Bohr mag/cell
     absolute magnetization    =    10.01 Bohr mag/cell

     iteration # 14     ecut=    48.00 Ry     beta= 0.50
     Davidson diagonalization with overlap
     ethr =  2.22E-10,  avg # of iterations =  4.7

     negative rho (up, down):  3.113E-03 3.808E-03
 
     Magnetic moment per site:
     atom:    1    charge:    0.8806    magn:    0.0004    constr:    0.0000
     atom:    2    charge:    0.8801    magn:    0.0008    constr:    0.0000
     atom:    3    charge:    0.8802    magn:    0.0001    constr:    0.0000
     atom:    4    charge:    0.8803    magn:    0.0001    constr:    0.0000
     atom:    5    charge:    0.8800    magn:    0.0001    constr:    0.0000
     atom:    6    charge:    0.8805    magn:    0.0001    constr:    0.0000
     atom:    7    charge:    2.8610    magn:    0.0004    constr:    0.0000
     atom:    8    charge:    2.8610    magn:    0.0064    constr:    0.0000
     atom:    9    charge:    2.8609    magn:    0.0003    constr:    0.0000
     atom:   10    charge:    2.8609    magn:    0.0002    constr:    0.0000
     atom:   11    charge:    2.8604    magn:    0.0047    constr:    0.0000
     atom:   12    charge:    2.8609    magn:    0.0014    constr:    0.0000
     atom:   13    charge:    2.8596    magn:    0.0040    constr:    0.0000
     atom:   14    charge:    2.8597    magn:    0.0009    constr:    0.0000
     atom:   15    charge:    2.8600    magn:    0.0000    constr:    0.0000
     atom:   16    charge:    0.8807    magn:   -0.0000    constr:    0.0000
     atom:   17    charge:    0.8798    magn:    0.0008    constr:    0.0000
     atom:   18    charge:    0.8802    magn:    0.0001    constr:    0.0000
     atom:   19    charge:    0.8794    magn:    0.0001    constr:    0.0000
     atom:   20    charge:    0.8800    magn:    0.0004    constr:    0.0000
     atom:   21    charge:    0.8805    magn:   -0.0000    constr:    0.0000
     atom:   22    charge:    2.8609    magn:    0.0040    constr:    0.0000
     atom:   23    charge:    0.8804    magn:    0.0002    constr:    0.0000
     atom:   24    charge:    0.8788    magn:    0.0001    constr:    0.0000
     atom:   25    charge:    0.8799    magn:    0.0001    constr:    0.0000
     atom:   26    charge:    2.8598    magn:    0.0014    constr:    0.0000
     atom:   27    charge:    2.8598    magn:    0.0064    constr:    0.0000
     atom:   28    charge:    2.8598    magn:    0.0007    constr:    0.0000
     atom:   29    charge:    2.8596    magn:    0.0007    constr:    0.0000
     atom:   30    charge:    2.8596    magn:    0.0003    constr:    0.0000
     atom:   31    charge:    2.8596    magn:    0.0002    constr:    0.0000
     atom:   32    charge:    0.8802    magn:    0.0001    constr:    0.0000
     atom:   33    charge:   12.5177    magn:    4.2354    constr:    0.0000
     atom:   34    charge:   12.5176    magn:    4.2353    constr:    0.0000

     total cpu time spent up to now is      535.5 secs

     End of self-consistent calculation

 ------ SPIN UP ------------


          k = 0.1667 0.2887 0.0000 ( 59267 PWs)   bands (ev):

   -72.8823 -72.8741 -44.4360 -44.3552 -44.2815 -44.2735 -44.2553 -44.2473
   -21.2473 -20.6606 -20.6567 -20.1050 -20.0969 -19.5869 -19.5844 -19.1000
   -18.6978 -18.6921 -18.4583 -18.4508 -18.1956 -18.0858 -18.0788 -17.8502
   -12.4844 -12.2076 -12.2015 -11.8214 -11.8183 -11.6591 -11.1919 -11.1899
   -10.3924 -10.3682 -10.1183 -10.1154  -9.5895  -9.5886  -8.8372  -8.8265
    -8.8230  -8.7662  -8.7629  -8.5971  -8.1976  -8.0538  -8.0142  -7.8300
    -7.8275  -7.4395  -7.4372  -7.2831  -7.2584  -7.2083  -7.2074  -6.9620
    -6.9551  -6.5683  -6.5364  -6.1544  -6.1535  -5.8722  -5.4191  -5.2972
    -5.2738  -5.2008  -4.9127  -4.9009  -4.5082  -4.3578  -4.3397  -3.9801
    -2.8810  -2.0418  -2.0201  -1.8348  -1.6365  -1.5810  -1.4809  -1.4678
    -1.3738  -1.3663  -1.3175  -0.7362   0.6772   0.8525   1.0528   1.2021
     1.2982   1.4826   1.5199   1.5746   1.6095   1.7977

          k = 0.1667-0.4811 0.0000 ( 59291 PWs)   bands (ev):

   -72.8823 -72.8741 -44.4360 -44.3552 -44.2814 -44.2735 -44.2553 -44.2473
   -21.1169 -20.9125 -20.7234 -20.1613 -19.8048 -19.4670 -19.3175 -19.1752
   -19.0149 -18.7792 -18.6421 -18.5448 -18.1497 -18.0898 -17.9227 -17.7245
   -12.3485 -12.1137 -12.0452 -11.9068 -11.6809 -11.6595 -11.5531 -10.9426
   -10.8906 -10.6239 -10.5236  -9.8608  -9.6937  -9.3367  -9.1114  -8.6684
    -8.6233  -8.5537  -8.3896  -8.3676  -8.1621  -8.1230  -8.0632  -8.0507
    -7.6892  -7.6239  -7.4947  -7.4748  -7.3565  -7.1714  -7.0683  -6.8609
    -6.6227  -6.3895  -6.1785  -6.1584  -5.9725  -5.9298  -5.7843  -5.7457
    -5.4520  -5.3975  -5.2099  -5.0423  -4.4456  -4.3483  -4.0895  -3.7678
    -2.8782  -2.0415  -2.0208  -1.8313  -1.6349  -1.5808  -1.4835  -1.4683
    -1.3737  -1.3661  -1.3194  -0.7406   0.5909   0.8411   1.0726   1.1152
     1.2446   1.2733   1.3975   1.8413   1.9288   2.1111

          k = 0.1667-0.0962 0.0000 ( 59226 PWs)   bands (ev):

   -72.8823 -72.8741 -44.4359 -44.3552 -44.2815 -44.2735 -44.2553 -44.2473
   -21.3137 -20.5361 -20.3475 -20.3378 -19.9906 -19.9796 -19.8063 -18.7316
   -18.7210 -18.3764 -18.3681 -18.3552 -18.2703 -18.2618 -18.0793 -18.0707
   -12.5085 -12.5021 -12.4086 -11.5826 -11.5758 -11.4277 -11.4204 -10.9271
   -10.9238  -9.9304  -9.9261  -9.6762  -9.3754  -9.3728  -9.2310  -9.2283
    -9.0428  -9.0407  -8.9240  -8.3248  -8.3215  -7.9022  -7.8999  -7.8812
    -7.8456  -7.7709  -7.6114  -7.5805  -7.1378  -7.0898  -6.9598  -6.8891
    -6.8855  -6.8514  -6.5327  -6.5281  -6.2581  -5.3540  -5.3144  -5.1439
    -5.0659  -4.8098  -4.8006  -4.7488  -4.6158  -4.6077  -4.3559  -4.3296
    -2.8842  -2.0421  -2.0196  -1.8383  -1.6391  -1.5811  -1.4786  -1.4673
    -1.3737  -1.3667  -1.3158  -0.7316   0.7822   0.8444   1.0044   1.2112
     1.2600   1.3486   1.5833   1.6024   1.7305   1.9460

          k =-0.5000-0.8660 0.0000 ( 59292 PWs)   bands (ev):

   -72.8823 -72.8741 -44.4360 -44.3553 -44.2815 -44.2736 -44.2552 -44.2473
   -21.0498 -21.0475 -20.4719 -20.4625 -19.4298 -19.4194 -19.4143 -19.4084
   -18.9924 -18.9900 -18.3258 -18.3207 -18.3167 -18.3149 -17.7961 -17.7873
   -12.0713 -12.0659 -12.0634 -12.0619 -11.8803 -11.8719 -11.3294 -11.3281
   -10.2366 -10.2308 -10.1368 -10.1333 -10.1300 -10.1257  -8.5908  -8.5504
    -8.5474  -8.5452  -8.5446  -8.5385  -7.8657  -7.8640  -7.8590  -7.8573
    -7.8257  -7.8197  -7.7837  -7.7515  -7.4902  -7.4873  -6.6136  -6.6067
    -6.3625  -6.3318  -6.3060  -6.2928  -6.1901  -6.1886  -5.7120  -5.6968
    -5.5459  -5.5426  -4.7296  -4.7208  -4.6962  -4.6915  -3.8914  -3.8653
    -2.8660  -2.0394  -2.0202  -1.8328  -1.6372  -1.5803  -1.4839  -1.4682
    -1.3790  -1.3700  -1.3225  -0.8591   0.7746   0.9985   1.1203   1.1598
     1.3673   1.5698   1.5862   1.6064   1.7347   1.7538

          k =-0.1667 0.2887 0.0000 ( 59267 PWs)   bands (ev):

   -72.8823 -72.8741 -44.4360 -44.3552 -44.2815 -44.2735 -44.2553 -44.2473
   -21.2473 -20.6606 -20.6567 -20.1050 -20.0969 -19.5869 -19.5844 -19.1000
   -18.6978 -18.6921 -18.4583 -18.4508 -18.1955 -18.0858 -18.0788 -17.8502
   -12.4844 -12.2076 -12.2015 -11.8214 -11.8183 -11.6592 -11.1919 -11.1899
   -10.3925 -10.3682 -10.1183 -10.1154  -9.5895  -9.5886  -8.8372  -8.8265
    -8.8229  -8.7663  -8.7630  -8.5970  -8.1977  -8.0538  -8.0142  -7.8300
    -7.8274  -7.4395  -7.4372  -7.2831  -7.2584  -7.2082  -7.2074  -6.9620
    -6.9551  -6.5683  -6.5364  -6.1543  -6.1535  -5.8722  -5.4192  -5.2972
    -5.2738  -5.2007  -4.9127  -4.9009  -4.5082  -4.3578  -4.3397  -3.9801
    -2.8810  -2.0418  -2.0201  -1.8348  -1.6365  -1.5810  -1.4809  -1.4678
    -1.3738  -1.3663  -1.3175  -0.7362   0.6772   0.8525   1.0528   1.2021
     1.2981   1.4826   1.5199   1.5746   1.6094   1.7977

          k = 0.3333 0.0000 0.0000 ( 59267 PWs)   bands (ev):

   -72.8823 -72.8741 -44.4360 -44.3553 -44.2815 -44.2735 -44.2553 -44.2473
   -21.2469 -20.6859 -20.6312 -20.1058 -20.0945 -19.6136 -19.5597 -19.1021
   -18.7140 -18.6708 -18.4617 -18.4494 -18.1907 -18.1089 -18.0626 -17.8494
   -12.4842 -12.2088 -12.2000 -11.8299 -11.8121 -11.6569 -11.2104 -11.1721
   -10.3916 -10.3679 -10.1309 -10.1031  -9.5959  -9.5811  -8.8453  -8.8236
    -8.8152  -8.7886  -8.7421  -8.5979  -8.1995  -8.1021  -7.9654  -7.8289
    -7.8264  -7.4452  -7.4308  -7.2939  -7.2422  -7.2184  -7.1971  -6.9645
    -6.9541  -6.6184  -6.4936  -6.1572  -6.1498  -5.8786  -5.4190  -5.3114
    -5.2490  -5.2010  -4.9211  -4.8950  -4.4995  -4.3845  -4.3257  -3.9785
    -2.8733  -2.0401  -2.0195  -1.8359  -1.6390  -1.5806  -1.4809  -1.4677
    -1.3772  -1.3691  -1.3193  -0.8187   0.8198   0.9918   1.0782   1.2472
     1.3218   1.4990   1.5164   1.5562   1.5886   1.8312

          k =-0.1667-0.4811 0.0000 ( 59291 PWs)   bands (ev):

   -72.8823 -72.8741 -44.4360 -44.3552 -44.2814 -44.2735 -44.2553 -44.2473
   -21.1169 -20.9125 -20.7234 -20.1613 -19.8048 -19.4670 -19.3174 -19.1752
   -19.0149 -18.7792 -18.6421 -18.5448 -18.1497 -18.0898 -17.9227 -17.7245
   -12.3486 -12.1137 -12.0452 -11.9068 -11.6809 -11.6595 -11.5531 -10.9426
   -10.8906 -10.6239 -10.5236  -9.8608  -9.6937  -9.3367  -9.1115  -8.6684
    -8.6233  -8.5537  -8.3895  -8.3676  -8.1621  -8.1230  -8.0633  -8.0508
    -7.6892  -7.6240  -7.4946  -7.4748  -7.3565  -7.1714  -7.0683  -6.8609
    -6.6227  -6.3895  -6.1785  -6.1584  -5.9725  -5.9298  -5.7843  -5.7457
    -5.4521  -5.3975  -5.2098  -5.0423  -4.4456  -4.3483  -4.0895  -3.7679
    -2.8782  -2.0415  -2.0208  -1.8313  -1.6349  -1.5808  -1.4835  -1.4683
    -1.3737  -1.3661  -1.3194  -0.7406   0.5909   0.8411   1.0726   1.1152
     1.2446   1.2733   1.3976   1.8413   1.9288   2.1111

          k = 0.5000-0.0962 0.0000 ( 59291 PWs)   bands (ev):

   -72.8823 -72.8741 -44.4359 -44.3553 -44.2815 -44.2735 -44.2553 -44.2473
   -21.1141 -20.9201 -20.7185 -20.1594 -19.8049 -19.4692 -19.3232 -19.1702
   -19.0159 -18.7803 -18.6314 -18.5510 -18.1372 -18.1067 -17.9198 -17.7241
   -12.3476 -12.1142 -12.0431 -11.9108 -11.6930 -11.6448 -11.5555 -10.9429
   -10.8885 -10.6223 -10.5261  -9.8585  -9.6944  -9.3377  -9.1109  -8.6580
    -8.6239  -8.5516  -8.4003  -8.3918  -8.1600  -8.1034  -8.0764  -8.0389
    -7.6852  -7.6244  -7.4937  -7.4760  -7.3502  -7.1728  -7.0691  -6.8602
    -6.6231  -6.3989  -6.1947  -6.1578  -5.9572  -5.9291  -5.7835  -5.7486
    -5.4531  -5.3982  -5.1864  -5.0566  -4.4235  -4.3765  -4.0863  -3.7671
    -2.8662  -2.0394  -2.0202  -1.8328  -1.6377  -1.5803  -1.4839  -1.4682
    -1.3789  -1.3701  -1.3225  -0.8589   0.7616   0.9941   1.1067   1.1585
     1.3012   1.3172   1.5544   1.7529   1.8399   1.9209

          k =-0.3333-0.3849 0.0000 ( 59291 PWs)   bands (ev):

   -72.8823 -72.8741 -44.4359 -44.3553 -44.2814 -44.2736 -44.2553 -44.2473
   -21.1151 -20.9174 -20.7203 -20.1592 -19.8069 -19.4671 -19.3181 -19.1738
   -19.0188 -18.7785 -18.6330 -18.5501 -18.1399 -18.1035 -17.9199 -17.7243
   -12.3481 -12.1123 -12.0454 -11.9099 -11.6819 -11.6572 -11.5544 -10.9427
   -10.8881 -10.6216 -10.5270  -9.8593  -9.6945  -9.3371  -9.1118  -8.6613
    -8.6226  -8.5537  -8.3916  -8.3864  -8.1616  -8.1109  -8.0633  -8.0533
    -7.6855  -7.6229  -7.5005  -7.4698  -7.3488  -7.1729  -7.0697  -6.8685
    -6.6211  -6.3906  -6.1790  -6.1601  -5.9698  -5.9280  -5.7836  -5.7573
    -5.4530  -5.3928  -5.1872  -5.0572  -4.4261  -4.3738  -4.0856  -3.7675
    -2.8701  -2.0403  -2.0205  -1.8323  -1.6364  -1.5805  -1.4836  -1.4684
    -1.3772  -1.3687  -1.3214  -0.8228   0.7012   0.9578   1.1022   1.1468
     1.2327   1.3810   1.4321   1.8054   1.9029   1.9183

          k = 0.5000 0.0962 0.0000 ( 59291 PWs)   bands (ev):

   -72.8823 -72.8741 -44.4359 -44.3553 -44.2815 -44.2735 -44.2553 -44.2473
   -21.1141 -20.9201 -20.7185 -20.1594 -19.8049 -19.4692 -19.3232 -19.1702
   -19.0159 -18.7803 -18.6314 -18.5510 -18.1372 -18.1067 -17.9198 -17.7241
   -12.3476 -12.1142 -12.0431 -11.9109 -11.6930 -11.6448 -11.5555 -10.9428
   -10.8885 -10.6223 -10.5261  -9.8585  -9.6944  -9.3377  -9.1108  -8.6580
    -8.6239  -8.5516  -8.4003  -8.3918  -8.1600  -8.1034  -8.0764  -8.0389
    -7.6852  -7.6244  -7.4938  -7.4760  -7.3502  -7.1729  -7.0691  -6.8602
    -6.6230  -6.3989  -6.1947  -6.1578  -5.9572  -5.9290  -5.7836  -5.7486
    -5.4532  -5.3982  -5.1864  -5.0566  -4.4235  -4.3765  -4.0863  -3.7671
    -2.8662  -2.0394  -2.0202  -1.8328  -1.6377  -1.5803  -1.4839  -1.4682
    -1.3789  -1.3701  -1.3225  -0.8589   0.7616   0.9941   1.1067   1.1586
     1.3012   1.3171   1.5544   1.7529   1.8399   1.9213

          k =-0.3333 0.3849 0.0000 ( 59291 PWs)   bands (ev):

   -72.8823 -72.8741 -44.4359 -44.3553 -44.2814 -44.2736 -44.2553 -44.2473
   -21.1151 -20.9174 -20.7203 -20.1592 -19.8069 -19.4671 -19.3181 -19.1739
   -19.0188 -18.7785 -18.6330 -18.5501 -18.1399 -18.1035 -17.9200 -17.7243
   -12.3480 -12.1123 -12.0454 -11.9099 -11.6819 -11.6572 -11.5544 -10.9428
   -10.8881 -10.6216 -10.5270  -9.8593  -9.6945  -9.3370  -9.1118  -8.6613
    -8.6227  -8.5536  -8.3917  -8.3864  -8.1616  -8.1109  -8.0633  -8.0533
    -7.6854  -7.6229  -7.5005  -7.4697  -7.3488  -7.1729  -7.0698  -6.8685
    -6.6211  -6.3906  -6.1790  -6.1601  -5.9698  -5.9281  -5.7836  -5.7573
    -5.4529  -5.3927  -5.1872  -5.0572  -4.4262  -4.3738  -4.0856  -3.7674
    -2.8701  -2.0403  -2.0205  -1.8323  -1.6364  -1.5805  -1.4836  -1.4684
    -1.3772  -1.3687  -1.3214  -0.8228   0.7012   0.9578   1.1022   1.1468
     1.2327   1.3810   1.4321   1.8053   1.9028   1.9183

          k =-0.1667-0.0962 0.0000 ( 59226 PWs)   bands (ev):

   -72.8823 -72.8741 -44.4359 -44.3552 -44.2815 -44.2735 -44.2553 -44.2473
   -21.3137 -20.5361 -20.3475 -20.3378 -19.9906 -19.9796 -19.8063 -18.7316
   -18.7210 -18.3764 -18.3681 -18.3552 -18.2703 -18.2618 -18.0792 -18.0707
   -12.5085 -12.5021 -12.4085 -11.5826 -11.5758 -11.4277 -11.4204 -10.9271
   -10.9238  -9.9304  -9.9261  -9.6762  -9.3754  -9.3728  -9.2310  -9.2284
    -9.0428  -9.0408  -8.9240  -8.3248  -8.3215  -7.9022  -7.8998  -7.8812
    -7.8455  -7.7710  -7.6114  -7.5805  -7.1378  -7.0898  -6.9599  -6.8891
    -6.8854  -6.8514  -6.5326  -6.5280  -6.2581  -5.3540  -5.3144  -5.1438
    -5.0660  -4.8098  -4.8006  -4.7488  -4.6158  -4.6077  -4.3559  -4.3296
    -2.8842  -2.0421  -2.0196  -1.8383  -1.6391  -1.5811  -1.4786  -1.4673
    -1.3737  -1.3667  -1.3158  -0.7316   0.7822   0.8444   1.0044   1.2111
     1.2600   1.3487   1.5834   1.6024   1.7305   1.9457

          k =-0.0000-0.1925 0.0000 ( 59226 PWs)   bands (ev):

   -72.8823 -72.8741 -44.4359 -44.3552 -44.2815 -44.2735 -44.2553 -44.2473
   -21.3138 -20.5311 -20.3541 -20.3401 -19.9875 -19.9751 -19.8099 -18.7309
   -18.7181 -18.3939 -18.3733 -18.3527 -18.2553 -18.2552 -18.0833 -18.0717
   -12.5098 -12.5009 -12.4084 -11.5846 -11.5755 -11.4268 -11.4181 -10.9285
   -10.9242  -9.9294  -9.9270  -9.6767  -9.3759  -9.3711  -9.2305  -9.2293
    -9.0427  -9.0411  -8.9246  -8.3242  -8.3211  -7.9012  -7.8992  -7.8643
    -7.8440  -7.7727  -7.6334  -7.5924  -7.1133  -7.0874  -6.9585  -6.8908
    -6.8854  -6.8631  -6.5329  -6.5269  -6.2588  -5.3443  -5.3158  -5.1440
    -5.0657  -4.8365  -4.8078  -4.7522  -4.5957  -4.5893  -4.3577  -4.3370
    -2.8880  -2.0429  -2.0199  -1.8377  -1.6378  -1.5813  -1.4790  -1.4672
    -1.3721  -1.3653  -1.3150  -0.6834   0.6681   0.8044   0.9943   1.1828
     1.2480   1.3796   1.5794   1.6190   1.6875   2.0024

          k = 0.5000-0.8660 0.0000 ( 59292 PWs)   bands (ev):

   -72.8823 -72.8741 -44.4360 -44.3553 -44.2815 -44.2736 -44.2552 -44.2473
   -21.0498 -21.0474 -20.4719 -20.4625 -19.4298 -19.4194 -19.4143 -19.4084
   -18.9924 -18.9899 -18.3258 -18.3207 -18.3168 -18.3149 -17.7961 -17.7873
   -12.0713 -12.0659 -12.0635 -12.0618 -11.8803 -11.8719 -11.3294 -11.3280
   -10.2366 -10.2308 -10.1368 -10.1334 -10.1300 -10.1258  -8.5908  -8.5503
    -8.5475  -8.5452  -8.5445  -8.5384  -7.8656  -7.8639  -7.8590  -7.8574
    -7.8258  -7.8197  -7.7837  -7.7515  -7.4903  -7.4874  -6.6135  -6.6066
    -6.3625  -6.3318  -6.3060  -6.2928  -6.1901  -6.1884  -5.7120  -5.6968
    -5.5460  -5.5427  -4.7296  -4.7207  -4.6962  -4.6915  -3.8914  -3.8653
    -2.8660  -2.0394  -2.0202  -1.8328  -1.6372  -1.5803  -1.4839  -1.4682
    -1.3790  -1.3700  -1.3225  -0.8591   0.7746   0.9985   1.1203   1.1598
     1.3672   1.5697   1.5860   1.6064   1.7348   1.7538

          k =-1.0000 0.0000 0.0000 ( 59292 PWs)   bands (ev):

   -72.8823 -72.8741 -44.4360 -44.3553 -44.2815 -44.2735 -44.2553 -44.2473
   -21.0746 -21.0198 -20.4764 -20.4627 -19.4245 -19.4212 -19.4201 -19.4002
   -19.0131 -18.9706 -18.3712 -18.3357 -18.2918 -18.2805 -17.7983 -17.7867
   -12.1023 -12.0815 -12.0396 -12.0349 -11.8822 -11.8708 -11.3508 -11.3090
   -10.2423 -10.2397 -10.1327 -10.1314 -10.1249 -10.1238  -8.6322  -8.5749
    -8.5581  -8.5279  -8.5173  -8.4912  -7.8755  -7.8695  -7.8608  -7.8603
    -7.8169  -7.8140  -7.7901  -7.7588  -7.5140  -7.4658  -6.6129  -6.6046
    -6.3564  -6.3293  -6.3086  -6.2794  -6.2088  -6.1726  -5.7379  -5.6777
    -5.5668  -5.5222  -4.7946  -4.7535  -4.6490  -4.6441  -3.8889  -3.8699
    -2.8822  -2.0418  -2.0207  -1.8308  -1.6341  -1.5810  -1.4837  -1.4680
    -1.3720  -1.3647  -1.3185  -0.6934   0.5482   0.7584   1.0649   1.1146
     1.1896   1.5482   1.5767   1.5999   1.6416   1.9379

 ------ SPIN DOWN ----------


          k = 0.1667 0.2887 0.0000 ( 59267 PWs)   bands (ev):

   -68.6859 -68.6765 -40.3726 -40.2770 -40.1009 -40.0914 -40.0548 -40.0453
   -21.2436 -20.6567 -20.6533 -20.1010 -20.0936 -19.5835 -19.5805 -19.0961
   -18.6931 -18.6884 -18.4542 -18.4473 -18.1908 -18.0819 -18.0757 -17.8462
   -12.4822 -12.2049 -12.1993 -11.8191 -11.8163 -11.6570 -11.1893 -11.1876
   -10.3897 -10.3658 -10.1153 -10.1130  -9.5869  -9.5864  -8.8247  -8.8206
    -8.8166  -8.7640  -8.7605  -8.5947  -8.1954  -8.0303  -8.0048  -7.8275
    -7.8252  -7.4361  -7.4344  -7.2637  -7.2458  -7.2061  -7.2048  -6.9594
    -6.9529  -6.5475  -6.5283  -6.1517  -6.1511  -5.8564  -5.4162  -5.2744
    -5.2624  -5.1982  -4.8982  -4.8887  -4.4910  -4.3425  -4.3314  -3.9665
    -1.4502   0.3856   0.7991   0.9985   1.1277   1.1905   1.2705   1.3506
     1.4230   1.4915   1.5539   1.6035   1.6348   1.7435   1.9043   1.9743
     2.0419   2.0950   2.1452   2.1844   2.2934   2.3397

          k = 0.1667-0.4811 0.0000 ( 59291 PWs)   bands (ev):

   -68.6859 -68.6765 -40.3726 -40.2770 -40.1009 -40.0914 -40.0548 -40.0453
   -21.1129 -20.9094 -20.7196 -20.1575 -19.8011 -19.4633 -19.3138 -19.1713
   -19.0111 -18.7755 -18.6369 -18.5417 -18.1441 -18.0876 -17.9186 -17.7204
   -12.3462 -12.1113 -12.0429 -11.9047 -11.6789 -11.6569 -11.5508 -10.9400
   -10.8879 -10.6213 -10.5213  -9.8579  -9.6914  -9.3339  -9.1090  -8.6457
    -8.6209  -8.5508  -8.3873  -8.3560  -8.1597  -8.1064  -8.0610  -8.0484
    -7.6865  -7.6215  -7.4922  -7.4726  -7.3393  -7.1685  -7.0660  -6.8455
    -6.6195  -6.3744  -6.1625  -6.1559  -5.9577  -5.9267  -5.7816  -5.7308
    -5.4495  -5.3832  -5.1880  -5.0332  -4.4250  -4.3420  -4.0761  -3.7545
    -1.4410   0.3732   0.7948   0.9609   1.0490   1.1366   1.2115   1.2837
     1.3689   1.4182   1.5710   1.7319   1.7976   1.8785   1.9061   2.0725
     2.1146   2.1387   2.1641   2.2229   2.3082   2.3379

          k = 0.1667-0.0962 0.0000 ( 59226 PWs)   bands (ev):

   -68.6859 -68.6765 -40.3726 -40.2770 -40.1009 -40.0914 -40.0548 -40.0453
   -21.3101 -20.5319 -20.3438 -20.3347 -19.9860 -19.9763 -19.8031 -18.7268
   -18.7174 -18.3716 -18.3645 -18.3516 -18.2659 -18.2580 -18.0755 -18.0675
   -12.5058 -12.5001 -12.4063 -11.5801 -11.5739 -11.4249 -11.4183 -10.9244
   -10.9215  -9.9277  -9.9239  -9.6735  -9.3729  -9.3704  -9.2280  -9.2257
    -9.0405  -9.0384  -8.9058  -8.3217  -8.3186  -7.8995  -7.8974  -7.8600
    -7.8418  -7.7687  -7.5952  -7.5705  -7.1134  -7.0793  -6.9573  -6.8865
    -6.8834  -6.8412  -6.5299  -6.5258  -6.2556  -5.3307  -5.3028  -5.1411
    -5.0632  -4.7914  -4.7845  -4.7374  -4.6020  -4.5948  -4.3404  -4.3205
    -1.4595   0.3998   0.8049   0.9950   1.0904   1.1548   1.2123   1.3223
     1.4699   1.5365   1.6042   1.6921   1.7805   1.8612   1.8917   1.9371
     1.9807   2.0561   2.1274   2.1382   2.2476   2.3104

          k =-0.5000-0.8660 0.0000 ( 59292 PWs)   bands (ev):

   -68.6859 -68.6765 -40.3726 -40.2770 -40.1009 -40.0914 -40.0548 -40.0453
   -21.0460 -21.0437 -20.4681 -20.4593 -19.4245 -19.4154 -19.4111 -19.4053
   -18.9888 -18.9861 -18.3200 -18.3178 -18.3151 -18.3091 -17.7918 -17.7837
   -12.0674 -12.0644 -12.0621 -12.0589 -11.8779 -11.8703 -11.3270 -11.3257
   -10.2338 -10.2288 -10.1335 -10.1306 -10.1274 -10.1236  -8.5633  -8.5449
    -8.5443  -8.5433  -8.5419  -8.5321  -7.8629  -7.8612  -7.8570  -7.8553
    -7.8220  -7.8165  -7.7667  -7.7411  -7.4884  -7.4846  -6.6105  -6.6045
    -6.3333  -6.3129  -6.2956  -6.2839  -6.1878  -6.1853  -5.6945  -5.6878
    -5.5436  -5.5398  -4.7080  -4.6984  -4.6884  -4.6857  -3.8749  -3.8555
    -1.4175   0.1362   0.7993   1.0499   1.0696   1.1428   1.2860   1.4222
     1.5171   1.5375   1.5901   1.6984   1.7609   1.8741   1.9230   1.9526
     1.9816   2.0472   2.1603   2.2206   2.3139   2.3439

          k =-0.1667 0.2887 0.0000 ( 59267 PWs)   bands (ev):

   -68.6859 -68.6765 -40.3726 -40.2770 -40.1009 -40.0914 -40.0548 -40.0453
   -21.2436 -20.6568 -20.6532 -20.1010 -20.0936 -19.5836 -19.5805 -19.0961
   -18.6931 -18.6884 -18.4542 -18.4473 -18.1908 -18.0820 -18.0757 -17.8462
   -12.4822 -12.2049 -12.1993 -11.8191 -11.8163 -11.6571 -11.1894 -11.1875
   -10.3897 -10.3658 -10.1153 -10.1131  -9.5869  -9.5864  -8.8247  -8.8205
    -8.8166  -8.7641  -8.7605  -8.5947  -8.1955  -8.0303  -8.0048  -7.8275
    -7.8252  -7.4361  -7.4344  -7.2637  -7.2458  -7.2061  -7.2048  -6.9595
    -6.9530  -6.5475  -6.5283  -6.1517  -6.1510  -5.8564  -5.4163  -5.2744
    -5.2624  -5.1981  -4.8982  -4.8886  -4.4910  -4.3426  -4.3314  -3.9665
    -1.4502   0.3855   0.7992   0.9985   1.1278   1.1905   1.2705   1.3506
     1.4230   1.4915   1.5539   1.6035   1.6348   1.7434   1.9042   1.9742
     2.0419   2.0950   2.1451   2.1847   2.2934   2.3399

          k = 0.3333 0.0000 0.0000 ( 59267 PWs)   bands (ev):

   -68.6859 -68.6765 -40.3726 -40.2770 -40.1009 -40.0914 -40.0548 -40.0453
   -21.2432 -20.6805 -20.6294 -20.1021 -20.0909 -19.6080 -19.5578 -19.0980
   -18.7081 -18.6691 -18.4575 -18.4455 -18.1868 -18.1026 -18.0608 -17.8455
   -12.4818 -12.2066 -12.1975 -11.8274 -11.8101 -11.6550 -11.2069 -11.1706
   -10.3890 -10.3655 -10.1273 -10.1014  -9.5931  -9.5792  -8.8317  -8.8202
    -8.8079  -8.7850  -8.7409  -8.5955  -8.1970  -8.0733  -7.9616  -7.8266
    -7.8242  -7.4415  -7.4285  -7.2727  -7.2328  -7.2153  -7.1955  -6.9619
    -6.9518  -6.5915  -6.4895  -6.1543  -6.1477  -5.8610  -5.4161  -5.2908
    -5.2385  -5.1984  -4.9047  -4.8839  -4.4845  -4.3670  -4.3160  -3.9655
    -1.4353   0.2166   0.8452   0.9998   1.1014   1.1650   1.2914   1.4385
     1.4768   1.4889   1.5530   1.7104   1.7692   1.8449   1.9007   1.9363
     2.0122   2.0848   2.1293   2.1889   2.2998   2.3251

          k =-0.1667-0.4811 0.0000 ( 59291 PWs)   bands (ev):

   -68.6859 -68.6765 -40.3726 -40.2770 -40.1009 -40.0914 -40.0548 -40.0453
   -21.1129 -20.9094 -20.7196 -20.1575 -19.8011 -19.4633 -19.3138 -19.1713
   -19.0111 -18.7755 -18.6369 -18.5417 -18.1441 -18.0876 -17.9186 -17.7204
   -12.3463 -12.1113 -12.0429 -11.9046 -11.6789 -11.6569 -11.5509 -10.9400
   -10.8880 -10.6213 -10.5212  -9.8579  -9.6914  -9.3339  -9.1091  -8.6457
    -8.6208  -8.5508  -8.3873  -8.3560  -8.1596  -8.1064  -8.0610  -8.0485
    -7.6865  -7.6216  -7.4922  -7.4726  -7.3393  -7.1685  -7.0659  -6.8455
    -6.6196  -6.3744  -6.1625  -6.1559  -5.9577  -5.9267  -5.7816  -5.7308
    -5.4496  -5.3832  -5.1880  -5.0332  -4.4250  -4.3420  -4.0761  -3.7546
    -1.4410   0.3732   0.7948   0.9609   1.0490   1.1366   1.2115   1.2837
     1.3689   1.4182   1.5710   1.7318   1.7975   1.8785   1.9061   2.0725
     2.1147   2.1386   2.1642   2.2228   2.3084   2.3388

          k = 0.5000-0.0962 0.0000 ( 59291 PWs)   bands (ev):

   -68.6859 -68.6765 -40.3726 -40.2770 -40.1009 -40.0914 -40.0548 -40.0453
   -21.1105 -20.9160 -20.7154 -20.1558 -19.8012 -19.4652 -19.3187 -19.1670
   -19.0120 -18.7765 -18.6278 -18.5470 -18.1333 -18.1021 -17.9162 -17.7201
   -12.3452 -12.1118 -12.0411 -11.9084 -11.6902 -11.6433 -11.5529 -10.9403
   -10.8860 -10.6198 -10.5236  -9.8558  -9.6920  -9.3348  -9.1085  -8.6383
    -8.6213  -8.5489  -8.3916  -8.3774  -8.1579  -8.0925  -8.0730  -8.0377
    -7.6829  -7.6220  -7.4913  -7.4738  -7.3348  -7.1698  -7.0666  -6.8451
    -6.6199  -6.3802  -6.1747  -6.1554  -5.9470  -5.9261  -5.7809  -5.7328
    -5.4505  -5.3840  -5.1711  -5.0435  -4.4073  -4.3639  -4.0736  -3.7541
    -1.4176   0.1379   0.8000   1.0219   1.0618   1.1382   1.2062   1.2903
     1.4196   1.5932   1.6876   1.8000   1.8601   1.9144   1.9574   1.9935
     2.0304   2.1101   2.2007   2.2367   2.3007   2.3515

          k =-0.3333-0.3849 0.0000 ( 59291 PWs)   bands (ev):

   -68.6859 -68.6765 -40.3726 -40.2770 -40.1009 -40.0914 -40.0548 -40.0453
   -21.1113 -20.9137 -20.7170 -20.1557 -19.8030 -19.4634 -19.3143 -19.1701
   -19.0145 -18.7749 -18.6291 -18.5463 -18.1355 -18.0994 -17.9163 -17.7203
   -12.3458 -12.1100 -12.0432 -11.9074 -11.6799 -11.6549 -11.5520 -10.9402
   -10.8857 -10.6192 -10.5243  -9.8564  -9.6921  -9.3343  -9.1093  -8.6405
    -8.6202  -8.5506  -8.3886  -8.3698  -8.1593  -8.0978  -8.0610  -8.0508
    -7.6832  -7.6206  -7.4974  -7.4682  -7.3339  -7.1699  -7.0671  -6.8507
    -6.6181  -6.3750  -6.1634  -6.1571  -5.9554  -5.9252  -5.7811  -5.7392
    -5.4504  -5.3802  -5.1720  -5.0436  -4.4095  -4.3615  -4.0733  -3.7543
    -1.4256   0.2039   0.7869   1.0128   1.0594   1.1508   1.2144   1.2990
     1.3994   1.5114   1.6832   1.7757   1.8543   1.9046   1.9439   2.0078
     2.0609   2.0838   2.1444   2.2189   2.3147   2.3410

          k = 0.5000 0.0962 0.0000 ( 59291 PWs)   bands (ev):

   -68.6859 -68.6765 -40.3726 -40.2770 -40.1009 -40.0914 -40.0548 -40.0453
   -21.1105 -20.9160 -20.7154 -20.1559 -19.8012 -19.4652 -19.3188 -19.1670
   -19.0119 -18.7764 -18.6278 -18.5470 -18.1333 -18.1021 -17.9162 -17.7201
   -12.3452 -12.1119 -12.0410 -11.9084 -11.6902 -11.6433 -11.5529 -10.9403
   -10.8859 -10.6198 -10.5236  -9.8558  -9.6921  -9.3348  -9.1085  -8.6383
    -8.6213  -8.5490  -8.3916  -8.3774  -8.1579  -8.0925  -8.0730  -8.0376
    -7.6830  -7.6220  -7.4914  -7.4738  -7.3347  -7.1699  -7.0666  -6.8451
    -6.6198  -6.3802  -6.1747  -6.1553  -5.9470  -5.9261  -5.7810  -5.7328
    -5.4506  -5.3840  -5.1711  -5.0435  -4.4073  -4.3639  -4.0737  -3.7541
    -1.4176   0.1380   0.8000   1.0219   1.0618   1.1382   1.2062   1.2903
     1.4195   1.5932   1.6876   1.8000   1.8601   1.9144   1.9574   1.9935
     2.0304   2.1102   2.2007   2.2367   2.3009   2.3514

          k =-0.3333 0.3849 0.0000 ( 59291 PWs)   bands (ev):

   -68.6859 -68.6765 -40.3726 -40.2770 -40.1009 -40.0914 -40.0548 -40.0453
   -21.1113 -20.9137 -20.7170 -20.1557 -19.8030 -19.4634 -19.3143 -19.1701
   -19.0145 -18.7749 -18.6291 -18.5463 -18.1355 -18.0995 -17.9163 -17.7203
   -12.3458 -12.1100 -12.0432 -11.9074 -11.6799 -11.6549 -11.5519 -10.9402
   -10.8856 -10.6191 -10.5243  -9.8565  -9.6921  -9.3343  -9.1093  -8.6405
    -8.6202  -8.5506  -8.3887  -8.3698  -8.1593  -8.0978  -8.0609  -8.0507
    -7.6832  -7.6206  -7.4974  -7.4682  -7.3339  -7.1698  -7.0672  -6.8507
    -6.6182  -6.3750  -6.1634  -6.1571  -5.9554  -5.9253  -5.7810  -5.7392
    -5.4503  -5.3802  -5.1721  -5.0436  -4.4095  -4.3615  -4.0733  -3.7543
    -1.4256   0.2039   0.7869   1.0128   1.0594   1.1508   1.2144   1.2990
     1.3994   1.5114   1.6831   1.7756   1.8544   1.9046   1.9439   2.0078
     2.0608   2.0838   2.1443   2.2187   2.3148   2.3406

          k =-0.1667-0.0962 0.0000 ( 59226 PWs)   bands (ev):

   -68.6859 -68.6765 -40.3726 -40.2770 -40.1009 -40.0914 -40.0548 -40.0453
   -21.3101 -20.5319 -20.3438 -20.3347 -19.9860 -19.9763 -19.8031 -18.7268
   -18.7174 -18.3716 -18.3645 -18.3516 -18.2659 -18.2580 -18.0755 -18.0675
   -12.5059 -12.5001 -12.4062 -11.5801 -11.5739 -11.4250 -11.4183 -10.9244
   -10.9215  -9.9278  -9.9240  -9.6734  -9.3729  -9.3704  -9.2280  -9.2257
    -9.0405  -9.0384  -8.9058  -8.3217  -8.3187  -7.8995  -7.8973  -7.8600
    -7.8417  -7.7687  -7.5952  -7.5705  -7.1134  -7.0793  -6.9573  -6.8865
    -6.8834  -6.8412  -6.5299  -6.5258  -6.2557  -5.3307  -5.3029  -5.1410
    -5.0633  -4.7914  -4.7844  -4.7375  -4.6020  -4.5948  -4.3404  -4.3206
    -1.4595   0.3998   0.8049   0.9950   1.0904   1.1548   1.2123   1.3223
     1.4699   1.5366   1.6042   1.6921   1.7805   1.8612   1.8917   1.9371
     1.9808   2.0563   2.1275   2.1388   2.2481   2.3107

          k =-0.0000-0.1925 0.0000 ( 59226 PWs)   bands (ev):

   -68.6859 -68.6765 -40.3726 -40.2770 -40.1009 -40.0914 -40.0548 -40.0453
   -21.3102 -20.5276 -20.3496 -20.3367 -19.9837 -19.9721 -19.8062 -18.7263
   -18.7146 -18.3875 -18.3682 -18.3491 -18.2533 -18.2523 -18.0791 -18.0681
   -12.5076 -12.4985 -12.4061 -11.5820 -11.5735 -11.4245 -11.4159 -10.9258
   -10.9218  -9.9270  -9.9246  -9.6738  -9.3732  -9.3691  -9.2278  -9.2264
    -9.0403  -9.0389  -8.9063  -8.3214  -8.3182  -7.8988  -7.8970  -7.8505
    -7.8378  -7.7702  -7.6097  -7.5799  -7.0976  -7.0759  -6.9561  -6.8882
    -6.8831  -6.8497  -6.5304  -6.5247  -6.2562  -5.3249  -5.3027  -5.1413
    -5.0630  -4.8117  -4.7899  -4.7384  -4.5881  -4.5816  -4.3427  -4.3246
    -1.4665   0.5333   0.7675   0.9754   1.1033   1.1537   1.2025   1.2987
     1.4483   1.4821   1.5249   1.6232   1.7296   1.8445   1.9314   1.9415
     2.0600   2.0735   2.1607   2.1618   2.1941   2.3186

          k = 0.5000-0.8660 0.0000 ( 59292 PWs)   bands (ev):

   -68.6859 -68.6765 -40.3726 -40.2770 -40.1009 -40.0914 -40.0548 -40.0453
   -21.0461 -21.0436 -20.4681 -20.4593 -19.4245 -19.4154 -19.4111 -19.4053
   -18.9889 -18.9860 -18.3201 -18.3178 -18.3152 -18.3091 -17.7918 -17.7837
   -12.0675 -12.0644 -12.0622 -12.0588 -11.8778 -11.8703 -11.3270 -11.3256
   -10.2338 -10.2288 -10.1335 -10.1306 -10.1274 -10.1236  -8.5633  -8.5450
    -8.5444  -8.5433  -8.5418  -8.5321  -7.8629  -7.8612  -7.8570  -7.8553
    -7.8221  -7.8165  -7.7667  -7.7411  -7.4885  -7.4846  -6.6104  -6.6045
    -6.3333  -6.3129  -6.2956  -6.2839  -6.1879  -6.1851  -5.6945  -5.6878
    -5.5437  -5.5399  -4.7080  -4.6984  -4.6884  -4.6857  -3.8749  -3.8555
    -1.4175   0.1363   0.7993   1.0499   1.0696   1.1428   1.2860   1.4222
     1.5171   1.5374   1.5900   1.6985   1.7608   1.8741   1.9230   1.9525
     1.9815   2.0474   2.1604   2.2207   2.3136   2.3434

          k =-1.0000 0.0000 0.0000 ( 59292 PWs)   bands (ev):

   -68.6859 -68.6765 -40.3726 -40.2770 -40.1009 -40.0914 -40.0548 -40.0452
   -21.0693 -21.0180 -20.4721 -20.4595 -19.4206 -19.4167 -19.4164 -19.3974
   -19.0074 -18.9689 -18.3635 -18.3293 -18.2904 -18.2798 -17.7938 -17.7830
   -12.0988 -12.0782 -12.0382 -12.0341 -11.8798 -11.8690 -11.3472 -11.3075
   -10.2394 -10.2365 -10.1298 -10.1291 -10.1223 -10.1221  -8.6020  -8.5706
    -8.5551  -8.5267  -8.5165  -8.4875  -7.8721  -7.8663  -7.8579  -7.8578
    -7.8120  -7.8112  -7.7724  -7.7466  -7.5103  -7.4646  -6.6101  -6.6025
    -6.3317  -6.3117  -6.2970  -6.2717  -6.2047  -6.1707  -5.7193  -5.6672
    -5.5626  -5.5211  -4.7642  -4.7307  -4.6463  -4.6419  -3.8743  -3.8576
    -1.4483   0.4932   0.8209   0.9396   1.0442   1.1395   1.2129   1.2723
     1.3549   1.4943   1.5850   1.6420   1.6724   1.7977   1.8666   1.8901
     2.1315   2.1401   2.1603   2.1863   2.3271   2.3310

     the Fermi energy is    -1.1751 ev

!    total energy              =   -1133.82833915 Ry

     total all-electron energy =     -6753.504042 Ry
     estimated scf accuracy    <       0.00000005 Ry
     smearing contrib. (-TS)   =      -0.00000000 Ry
     internal energy E=F+TS    =   -1133.82833915 Ry

     The total energy is F=E-TS. E is the sum of the following terms:
     one-electron contribution =   -3952.98621283 Ry
     hartree contribution      =    2004.68348658 Ry
     xc contribution           =    -186.02032498 Ry
     ewald contribution        =    1359.87189898 Ry
     DFT-D3 Dispersion         =      -0.13425149 Ry
     one-center paw contrib.   =    -359.24293541 Ry

     total magnetization       =    10.00 Bohr mag/cell
     absolute magnetization    =    10.01 Bohr mag/cell

     convergence has been achieved in  14 iterations

     Writing output data file ./mytmp/Crdimer0.1415-0.5.save/
 
     init_run     :     18.43s CPU     19.36s WALL (       1 calls)
     electrons    :    483.87s CPU    515.92s WALL (       1 calls)

     Called by init_run:
     wfcinit      :     13.65s CPU     14.15s WALL (       1 calls)
     potinit      :      1.54s CPU      1.63s WALL (       1 calls)
     hinit0       :      1.54s CPU      1.61s WALL (       1 calls)

     Called by electrons:
     c_bands      :    385.11s CPU    407.56s WALL (      14 calls)
     sum_band     :     75.16s CPU     81.44s WALL (      14 calls)
     v_of_rho     :      4.57s CPU      4.92s WALL (      15 calls)
     newd         :     10.91s CPU     13.97s WALL (      15 calls)
     PAW_pot      :      7.40s CPU      7.47s WALL (      15 calls)
     mix_rho      :      1.01s CPU      1.03s WALL (      14 calls)

     Called by c_bands:
     init_us_2    :      5.03s CPU      5.07s WALL (     870 calls)
     cegterg      :    372.70s CPU    395.10s WALL (     420 calls)

     Called by *egterg:
     cdiaghg      :     24.33s CPU     38.54s WALL (    2667 calls)
     h_psi        :    241.08s CPU    248.73s WALL (    2697 calls)
     s_psi        :     26.93s CPU     26.96s WALL (    2697 calls)
     g_psi        :      0.70s CPU      0.72s WALL (    2247 calls)

     Called by h_psi:
     h_psi:calbec :     27.73s CPU     28.29s WALL (    2697 calls)
     vloc_psi     :    184.15s CPU    191.16s WALL (    2697 calls)
     add_vuspsi   :     27.07s CPU     27.14s WALL (    2697 calls)

     General routines
     calbec       :     37.16s CPU     37.87s WALL (    3117 calls)
     fft          :      5.80s CPU      8.05s WALL (     369 calls)
     ffts         :      0.11s CPU      0.12s WALL (      58 calls)
     fftw         :    189.64s CPU    196.89s WALL (  248642 calls)
     interpolate  :      0.42s CPU      0.44s WALL (      30 calls)
 
     Parallel routines
     fft_scatt_xy :     30.67s CPU     31.68s WALL (  249069 calls)
     fft_scatt_yz :     76.31s CPU     81.87s WALL (  249069 calls)
 
     PWSCF        :   8m24.33s CPU   8m59.36s WALL

 
   This run was terminated on:  13:40: 9   2Apr2021            

=------------------------------------------------------------------------------=
   JOB DONE.
=------------------------------------------------------------------------------=
