
     Program PWSCF v.6.7MaX starts on  2Apr2021 at 12:18:23 

     This program is part of the open-source Quantum ESPRESSO suite
     for quantum simulation of materials; please cite
         "P. Giannozzi et al., J. Phys.:Condens. Matter 21 395502 (2009);
         "P. Giannozzi et al., J. Phys.:Condens. Matter 29 465901 (2017);
          URL http://www.quantum-espresso.org", 
     in publications or presentations arising from this work. More details at
     http://www.quantum-espresso.org/quote

     Parallel version (MPI), running on    48 processors

     MPI processes distributed on     1 nodes
     R & G space division:  proc/nbgrp/npool/nimage =      48
     Reading input from Crdimer0.141-0.3.scf.in

     Current dimensions of program PWSCF are:
     Max number of different atomic species (ntypx) = 10
     Max number of k-points (npk) =  40000
     Max angular momentum in pseudopotentials (lmaxx) =  3
     file N.pbe-n-kjpaw_psl.1.0.0.UPF: wavefunction(s)  2S renormalized
     file Cr.pbe-spn-kjpaw_psl.1.0.0.UPF: wavefunction(s)  3S 3P 3D renormalized
     file Cr.pbe-spn-kjpaw_psl.1.0.0.UPF: wavefunction(s)  3S 3P 3D renormalized

     --------------------------------------------
     Parameters for DFT-D3 Dispersion Correction:
     --------------------------------------------
       Reference C6 values for interpolation: 

         atom   Coordination number   C6
         B          0.000           214.36
         B          0.971           150.74
         B          1.944           106.23
         B          2.913            62.89
         B          4.586            56.06
         N          0.000            50.54
         N          0.994            44.25
         N          2.014            39.35
         N          2.990            31.16
         Cr1        0.000          1381.48
         Cr1        1.827           571.38
         Cr1       10.619           306.69
         Cr2        0.000          1381.48
         Cr2        1.827           571.38
         Cr2       10.619           306.69

       Values used:

         atom   Coordination number  R0_AB[au]  C6      C8
         B          3.338            3.039     62.89   2505.93
         B          3.335            3.039     62.89   2506.00
         B          3.338            3.039     62.89   2505.95
         B          3.335            3.039     62.89   2506.01
         B          3.380            3.039     62.86   2504.75
         B          3.335            3.039     62.89   2506.01
         N          3.135            2.478     31.22    688.69
         N          3.136            2.478     31.22    688.68
         N          3.140            2.478     31.22    688.65
         N          3.135            2.478     31.22    688.69
         N          3.154            2.478     31.21    688.52
         N          3.134            2.478     31.22    688.69
         N          3.149            2.478     31.21    688.56
         N          3.134            2.478     31.22    688.70
         N          3.134            2.478     31.22    688.70
         B          3.341            3.039     62.89   2505.87
         B          3.335            3.039     62.89   2506.00
         B          3.335            3.039     62.89   2506.01
         B          3.380            3.039     62.86   2504.75
         B          3.338            3.039     62.89   2505.93
         B          3.341            3.039     62.89   2505.87
         N          3.149            2.478     31.21    688.56
         B          3.336            3.039     62.89   2506.00
         B          3.343            3.039     62.89   2505.81
         B          3.337            3.039     62.89   2505.97
         N          3.134            2.478     31.22    688.69
         N          3.136            2.478     31.22    688.68
         N          3.134            2.478     31.22    688.70
         N          3.134            2.478     31.22    688.70
         N          3.140            2.478     31.22    688.65
         N          3.135            2.478     31.22    688.69
         B          3.337            3.039     62.89   2505.97
         Cr1        0.751            3.252   1294.36 119454.74
         Cr2        0.751            3.252   1294.36 119454.74

         Molecular C6 ( Ry / a.u.^6 ) =     78158.71


     Subspace diagonalization in iterative solution of the eigenvalue problem:
     one sub-group per band group will be used
     scalapack distributed-memory algorithm (size of sub-group:  6*  6 procs)

 
     Parallelization info
     --------------------
     sticks:   dense  smooth     PW     G-vecs:    dense   smooth      PW
     Min         235      98     26                36277     9874    1408
     Max         236      99     27                36282     9883    1425
     Sum       11311    4741   1285              1741401   474235   68095
 


     bravais-lattice index     =            4
     lattice parameter (alat)  =      18.9275  a.u.
     unit-cell volume          =   10553.3021 (a.u.)^3
     number of atoms/cell      =           34
     number of atomic types    =            4
     number of electrons       =       156.00
     number of Kohn-Sham states=           94
     kinetic-energy cutoff     =      48.0000  Ry
     charge density cutoff     =     457.0000  Ry
     scf convergence threshold =      1.0E-07
     mixing beta               =       0.5000
     number of iterations used =            8  plain     mixing
     Exchange-correlation= SLA  PW   PBX  PBC
                           (   1   4   3   4   0   0   0)

     celldm(1)=  18.927497  celldm(2)=   0.000000  celldm(3)=   1.797125
     celldm(4)=   0.000000  celldm(5)=   0.000000  celldm(6)=   0.000000

     crystal axes: (cart. coord. in units of alat)
               a(1) = (   1.000000   0.000000   0.000000 )  
               a(2) = (  -0.500000   0.866025   0.000000 )  
               a(3) = (   0.000000   0.000000   1.797125 )  

     reciprocal axes: (cart. coord. in units 2 pi/alat)
               b(1) = (  1.000000  0.577350  0.000000 )  
               b(2) = (  0.000000  1.154701  0.000000 )  
               b(3) = (  0.000000  0.000000  0.556444 )  


     PseudoPot. # 1 for B  read from file:
     /home/sf05/q-e-qe-6.7MaX-Release/pseudo/B.pbe-n-kjpaw_psl.1.0.0.UPF
     MD5 check sum: d9c678ba5d3b2fd7b74e61139c9288d8
     Pseudo is Projector augmented-wave + core cor, Zval =  3.0
     Generated using "atomic" code by A. Dal Corso  v.5.1.2
     Shape of augmentation charge: PSQ
     Using radial grid of 1059 points,  4 beta functions with: 
                l(1) =   0
                l(2) =   0
                l(3) =   1
                l(4) =   1
     Q(r) pseudized with 0 coefficients 


     PseudoPot. # 2 for N  read from file:
     /home/sf05/q-e-qe-6.7MaX-Release/pseudo/N.pbe-n-kjpaw_psl.1.0.0.UPF
     MD5 check sum: e0e4e94a9c4025c5b51bd7d8793849bd
     Pseudo is Projector augmented-wave + core cor, Zval =  5.0
     Generated using "atomic" code by A. Dal Corso  v.5.1.2
     Shape of augmentation charge: PSQ
     Using radial grid of 1085 points,  4 beta functions with: 
                l(1) =   0
                l(2) =   0
                l(3) =   1
                l(4) =   1
     Q(r) pseudized with 0 coefficients 


     PseudoPot. # 3 for Cr read from file:
     /home/sf05/q-e-qe-6.7MaX-Release/pseudo/Cr.pbe-spn-kjpaw_psl.1.0.0.UPF
     MD5 check sum: 198f1a2427a48552563eee314eba32ba
     Pseudo is Projector augmented-wave + core cor, Zval = 14.0
     Generated using &quot;atomic&quot; code by A. Dal Corso  v.6.3
     Shape of augmentation charge: PSQ
     Using radial grid of 1183 points,  6 beta functions with: 
                l(1) =   0
                l(2) =   0
                l(3) =   1
                l(4) =   1
                l(5) =   2
                l(6) =   2
     Q(r) pseudized with 0 coefficients 


     PseudoPot. # 4 for Cr read from file:
     /home/sf05/q-e-qe-6.7MaX-Release/pseudo/Cr.pbe-spn-kjpaw_psl.1.0.0.UPF
     MD5 check sum: 198f1a2427a48552563eee314eba32ba
     Pseudo is Projector augmented-wave + core cor, Zval = 14.0
     Generated using &quot;atomic&quot; code by A. Dal Corso  v.6.3
     Shape of augmentation charge: PSQ
     Using radial grid of 1183 points,  6 beta functions with: 
                l(1) =   0
                l(2) =   0
                l(3) =   1
                l(4) =   1
                l(5) =   2
                l(6) =   2
     Q(r) pseudized with 0 coefficients 


     atomic species   valence    mass     pseudopotential
        B              3.00    10.81100     B ( 1.00)
        N              5.00    14.00674     N ( 1.00)
        Cr1           14.00    51.99610     Cr( 1.00)
        Cr2           14.00    51.99610     Cr( 1.00)

     Starting magnetic structure 
     atomic species   magnetization
        B            0.000
        N            0.000
        Cr1          1.000
        Cr2          1.000

     No symmetry found



   Cartesian axes

     site n.     atom                  positions (alat units)
         1           B   tau(   1) = (  -0.1250000   0.2165064   0.8985623  )
         2           B   tau(   2) = (   0.3750000   0.6495191   0.8985623  )
         3           B   tau(   3) = (   0.2500000   0.0000000   0.8985623  )
         4           B   tau(   4) = (   0.7500000   0.0000000   0.8985623  )
         5           B   tau(   5) = (   0.1250000   0.2165064   0.8985623  )
         6           B   tau(   6) = (  -0.3750000   0.6495191   0.8985623  )
         7           N   tau(   7) = (   0.7500005   0.2886748   0.8985623  )
         8           N   tau(   8) = (   0.3750005   0.5051812   0.8985623  )
         9           N   tau(   9) = (   0.3750005   0.0721685   0.8985623  )
        10           N   tau(  10) = (   0.6250005   0.0721685   0.8985623  )
        11           N   tau(  11) = (   0.2500005   0.2886748   0.8985623  )
        12           N   tau(  12) = (   0.6250005   0.5051812   0.8985623  )
        13           N   tau(  13) = (   0.0000005   0.2886748   0.8985623  )
        14           N   tau(  14) = (   0.2500005   0.7216875   0.8985623  )
        15           N   tau(  15) = (  -0.2499995   0.7216875   0.8985623  )
        16           B   tau(  16) = (   0.0000000   0.4330127   0.8985623  )
        17           B   tau(  17) = (   0.1250000   0.6495191   0.8985623  )
        18           B   tau(  18) = (  -0.1250000   0.6495191   0.8985623  )
        19           B   tau(  19) = (   0.3750000   0.2165064   0.8985623  )
        20           B   tau(  20) = (   0.6250000   0.2165064   0.8985623  )
        21           B   tau(  21) = (   0.5000000   0.4330127   0.8985623  )
        22           N   tau(  22) = (   0.5000005   0.2886748   0.8985623  )
        23           B   tau(  23) = (  -0.2500000   0.4330127   0.8985623  )
        24           B   tau(  24) = (   0.2500000   0.4330127   0.8985623  )
        25           B   tau(  25) = (   0.5000000   0.0000000   0.8985623  )
        26           N   tau(  26) = (  -0.1249995   0.5051812   0.8985623  )
        27           N   tau(  27) = (   0.1250005   0.5051812   0.8985623  )
        28           N   tau(  28) = (   0.0000005   0.7216875   0.8985623  )
        29           N   tau(  29) = (   0.5000005   0.7216875   0.8985623  )
        30           N   tau(  30) = (   0.1250005   0.0721685   0.8985623  )
        31           N   tau(  31) = (   0.8750005   0.0721685   0.8985623  )
        32           B   tau(  32) = (   0.0000000   0.0000000   0.8985623  )
        33           Cr1 tau(  33) = (   0.3910000   0.2598076   1.2040735  )
        34           Cr2 tau(  34) = (   0.1090000   0.2598076   1.2040735  )

     number of k points=    15  Gaussian smearing, width (Ry)=  0.0000
                       cart. coord. in units 2pi/alat
        k(    1) = (   0.1666667   0.2886751   0.0000000), wk =   0.0740741
        k(    2) = (   0.1666667  -0.4811252   0.0000000), wk =   0.0740741
        k(    3) = (   0.1666667  -0.0962250   0.0000000), wk =   0.0740741
        k(    4) = (  -0.5000000  -0.8660254   0.0000000), wk =   0.0370370
        k(    5) = (  -0.1666667   0.2886751   0.0000000), wk =   0.0740741
        k(    6) = (   0.3333333   0.0000000   0.0000000), wk =   0.0740741
        k(    7) = (  -0.1666667  -0.4811252   0.0000000), wk =   0.0740741
        k(    8) = (   0.5000000  -0.0962250   0.0000000), wk =   0.0740741
        k(    9) = (  -0.3333333  -0.3849002   0.0000000), wk =   0.0740741
        k(   10) = (   0.5000000   0.0962250   0.0000000), wk =   0.0740741
        k(   11) = (  -0.3333333   0.3849002   0.0000000), wk =   0.0740741
        k(   12) = (  -0.1666667  -0.0962250   0.0000000), wk =   0.0740741
        k(   13) = (  -0.0000000  -0.1924501   0.0000000), wk =   0.0740741
        k(   14) = (   0.5000000  -0.8660254   0.0000000), wk =   0.0370370
        k(   15) = (  -1.0000000   0.0000000   0.0000000), wk =   0.0370370

     Dense  grid:  1741401 G-vectors     FFT dimensions: ( 135, 135, 240)

     Smooth grid:   474235 G-vectors     FFT dimensions: (  90,  90, 160)

     Estimated max dynamical RAM per process >     218.62 MB

     Estimated total dynamical RAM >      10.25 GB
     Generating pointlists ...
     new r_m :   0.0595 (alat units)  1.1269 (a.u.) for type    1
     new r_m :   0.0595 (alat units)  1.1269 (a.u.) for type    2
     new r_m :   0.1163 (alat units)  2.2017 (a.u.) for type    3
     new r_m :   0.1163 (alat units)  2.2017 (a.u.) for type    4

     Initial potential from superposition of free atoms

     starting charge  155.99382, renormalised to  156.00000

     negative rho (up, down):  6.711E-03 4.655E-04
     Starting wfcs are  148 randomized atomic wfcs
     Checking if some PAW data can be deallocated... 

     total cpu time spent up to now is       20.2 secs

     Self-consistent Calculation

     iteration #  1     ecut=    48.00 Ry     beta= 0.50
     Davidson diagonalization with overlap
     ethr =  1.00E-02,  avg # of iterations =  2.8

     negative rho (up, down):  4.894E-03 2.908E-03

     total cpu time spent up to now is       60.2 secs

     total energy              =   -1130.72503636 Ry
     estimated scf accuracy    <      11.38824981 Ry

     total magnetization       =    12.00 Bohr mag/cell
     absolute magnetization    =    12.12 Bohr mag/cell

     iteration #  2     ecut=    48.00 Ry     beta= 0.50
     Davidson diagonalization with overlap
     ethr =  7.30E-03,  avg # of iterations =  2.8

     negative rho (up, down):  8.343E-03 7.390E-03

     total cpu time spent up to now is       97.5 secs

     total energy              =   -1133.01752846 Ry
     estimated scf accuracy    <       3.53877875 Ry

     total magnetization       =    10.00 Bohr mag/cell
     absolute magnetization    =    10.13 Bohr mag/cell

     iteration #  3     ecut=    48.00 Ry     beta= 0.50
     Davidson diagonalization with overlap
     ethr =  2.27E-03,  avg # of iterations =  6.8

     negative rho (up, down):  3.627E-03 3.509E-03

     total cpu time spent up to now is      134.6 secs

     total energy              =   -1133.58502072 Ry
     estimated scf accuracy    <       0.74804348 Ry

     total magnetization       =    11.85 Bohr mag/cell
     absolute magnetization    =    11.91 Bohr mag/cell

     iteration #  4     ecut=    48.00 Ry     beta= 0.50
     Davidson diagonalization with overlap
     ethr =  4.80E-04,  avg # of iterations =  6.6

     negative rho (up, down):  7.152E-03 7.920E-03

     total cpu time spent up to now is      171.0 secs

     total energy              =   -1133.77270648 Ry
     estimated scf accuracy    <       0.50759217 Ry

     total magnetization       =    10.00 Bohr mag/cell
     absolute magnetization    =    10.02 Bohr mag/cell

     iteration #  5     ecut=    48.00 Ry     beta= 0.50
     Davidson diagonalization with overlap
     ethr =  3.25E-04,  avg # of iterations =  6.6

     negative rho (up, down):  4.768E-03 4.561E-03

     total cpu time spent up to now is      209.0 secs

     total energy              =   -1133.81286976 Ry
     estimated scf accuracy    <       0.04795788 Ry

     total magnetization       =    10.00 Bohr mag/cell
     absolute magnetization    =    10.02 Bohr mag/cell

     iteration #  6     ecut=    48.00 Ry     beta= 0.50
     Davidson diagonalization with overlap
     ethr =  3.07E-05,  avg # of iterations =  9.6

     negative rho (up, down):  3.743E-03 3.993E-03

     total cpu time spent up to now is      253.3 secs

     total energy              =   -1133.82228645 Ry
     estimated scf accuracy    <       0.02849586 Ry

     total magnetization       =    10.00 Bohr mag/cell
     absolute magnetization    =    10.02 Bohr mag/cell

     iteration #  7     ecut=    48.00 Ry     beta= 0.50
     Davidson diagonalization with overlap
     ethr =  1.83E-05,  avg # of iterations =  6.8

     negative rho (up, down):  3.332E-03 3.779E-03

     total cpu time spent up to now is      288.8 secs

     total energy              =   -1133.82708406 Ry
     estimated scf accuracy    <       0.00235902 Ry

     total magnetization       =    10.00 Bohr mag/cell
     absolute magnetization    =    10.02 Bohr mag/cell

     iteration #  8     ecut=    48.00 Ry     beta= 0.50
     Davidson diagonalization with overlap
     c_bands:  1 eigenvalues not converged
     ethr =  1.51E-06,  avg # of iterations =  8.8

     negative rho (up, down):  3.232E-03 3.746E-03

     total cpu time spent up to now is      332.5 secs

     total energy              =   -1133.82802514 Ry
     estimated scf accuracy    <       0.00039408 Ry

     total magnetization       =    10.00 Bohr mag/cell
     absolute magnetization    =    10.01 Bohr mag/cell

     iteration #  9     ecut=    48.00 Ry     beta= 0.50
     Davidson diagonalization with overlap
     ethr =  2.53E-07,  avg # of iterations =  3.4

     negative rho (up, down):  3.161E-03 3.738E-03

     total cpu time spent up to now is      364.4 secs

     total energy              =   -1133.82820844 Ry
     estimated scf accuracy    <       0.00008042 Ry

     total magnetization       =    10.00 Bohr mag/cell
     absolute magnetization    =    10.01 Bohr mag/cell

     iteration # 10     ecut=    48.00 Ry     beta= 0.50
     Davidson diagonalization with overlap
     ethr =  5.15E-08,  avg # of iterations =  4.9

     negative rho (up, down):  3.155E-03 3.758E-03

     total cpu time spent up to now is      404.1 secs

     total energy              =   -1133.82828326 Ry
     estimated scf accuracy    <       0.00002424 Ry

     total magnetization       =    10.00 Bohr mag/cell
     absolute magnetization    =    10.01 Bohr mag/cell

     iteration # 11     ecut=    48.00 Ry     beta= 0.50
     Davidson diagonalization with overlap
     ethr =  1.55E-08,  avg # of iterations =  4.3

     negative rho (up, down):  3.144E-03 3.772E-03

     total cpu time spent up to now is      437.4 secs

     total energy              =   -1133.82830782 Ry
     estimated scf accuracy    <       0.00000603 Ry

     total magnetization       =    10.00 Bohr mag/cell
     absolute magnetization    =    10.01 Bohr mag/cell

     iteration # 12     ecut=    48.00 Ry     beta= 0.50
     Davidson diagonalization with overlap
     ethr =  3.86E-09,  avg # of iterations =  4.6

     negative rho (up, down):  3.138E-03 3.782E-03

     total cpu time spent up to now is      470.5 secs

     total energy              =   -1133.82831502 Ry
     estimated scf accuracy    <       0.00000100 Ry

     total magnetization       =    10.00 Bohr mag/cell
     absolute magnetization    =    10.01 Bohr mag/cell

     iteration # 13     ecut=    48.00 Ry     beta= 0.50
     Davidson diagonalization with overlap
     ethr =  6.44E-10,  avg # of iterations =  4.8

     negative rho (up, down):  3.133E-03 3.787E-03

     total cpu time spent up to now is      505.3 secs

     total energy              =   -1133.82831759 Ry
     estimated scf accuracy    <       0.00000025 Ry

     total magnetization       =    10.00 Bohr mag/cell
     absolute magnetization    =    10.01 Bohr mag/cell

     iteration # 14     ecut=    48.00 Ry     beta= 0.50
     Davidson diagonalization with overlap
     ethr =  1.59E-10,  avg # of iterations =  4.8

     negative rho (up, down):  3.131E-03 3.787E-03
 
     Magnetic moment per site:
     atom:    1    charge:    0.8810    magn:    0.0007    constr:    0.0000
     atom:    2    charge:    0.8803    magn:    0.0002    constr:    0.0000
     atom:    3    charge:    0.8798    magn:    0.0004    constr:    0.0000
     atom:    4    charge:    0.8805    magn:    0.0001    constr:    0.0000
     atom:    5    charge:    0.8807    magn:    0.0005    constr:    0.0000
     atom:    6    charge:    0.8803    magn:    0.0001    constr:    0.0000
     atom:    7    charge:    2.8610    magn:    0.0002    constr:    0.0000
     atom:    8    charge:    2.8607    magn:    0.0018    constr:    0.0000
     atom:    9    charge:    2.8606    magn:    0.0046    constr:    0.0000
     atom:   10    charge:    2.8609    magn:    0.0008    constr:    0.0000
     atom:   11    charge:    2.8605    magn:    0.0080    constr:    0.0000
     atom:   12    charge:    2.8610    magn:    0.0003    constr:    0.0000
     atom:   13    charge:    2.8596    magn:    0.0052    constr:    0.0000
     atom:   14    charge:    2.8599    magn:    0.0002    constr:    0.0000
     atom:   15    charge:    2.8599    magn:    0.0000    constr:    0.0000
     atom:   16    charge:    0.8802    magn:    0.0004    constr:    0.0000
     atom:   17    charge:    0.8799    magn:    0.0002    constr:    0.0000
     atom:   18    charge:    0.8800    magn:    0.0001    constr:    0.0000
     atom:   19    charge:    0.8801    magn:    0.0005    constr:    0.0000
     atom:   20    charge:    0.8804    magn:    0.0007    constr:    0.0000
     atom:   21    charge:    0.8799    magn:    0.0004    constr:    0.0000
     atom:   22    charge:    2.8609    magn:    0.0052    constr:    0.0000
     atom:   23    charge:    0.8803    magn:    0.0002    constr:    0.0000
     atom:   24    charge:    0.8792    magn:    0.0003    constr:    0.0000
     atom:   25    charge:    0.8800    magn:    0.0003    constr:    0.0000
     atom:   26    charge:    2.8599    magn:    0.0003    constr:    0.0000
     atom:   27    charge:    2.8596    magn:    0.0018    constr:    0.0000
     atom:   28    charge:    2.8598    magn:    0.0002    constr:    0.0000
     atom:   29    charge:    2.8596    magn:    0.0002    constr:    0.0000
     atom:   30    charge:    2.8593    magn:    0.0046    constr:    0.0000
     atom:   31    charge:    2.8596    magn:    0.0008    constr:    0.0000
     atom:   32    charge:    0.8803    magn:    0.0003    constr:    0.0000
     atom:   33    charge:   12.5074    magn:    4.2301    constr:    0.0000
     atom:   34    charge:   12.5074    magn:    4.2301    constr:    0.0000

     total cpu time spent up to now is      541.2 secs

     End of self-consistent calculation

 ------ SPIN UP ------------


          k = 0.1667 0.2887 0.0000 ( 59267 PWs)   bands (ev):

   -72.8933 -72.8847 -44.4415 -44.3582 -44.2960 -44.2878 -44.2701 -44.2614
   -21.2465 -20.6617 -20.6537 -20.1095 -20.0903 -19.5888 -19.5802 -19.0987
   -18.6984 -18.6895 -18.4618 -18.4445 -18.1937 -18.0851 -18.0760 -17.8485
   -12.4844 -12.2094 -12.1975 -11.8212 -11.8160 -11.6574 -11.1924 -11.1876
   -10.3913 -10.3675 -10.1177 -10.1134  -9.5889  -9.5872  -8.8428  -8.8240
    -8.8193  -8.7675  -8.7585  -8.5955  -8.1962  -8.0513  -8.0179  -7.8302
    -7.8246  -7.4376  -7.4363  -7.2884  -7.2535  -7.2083  -7.2047  -6.9644
    -6.9494  -6.5644  -6.5403  -6.1532  -6.1516  -5.8715  -5.4175  -5.2935
    -5.2774  -5.1993  -4.9203  -4.8927  -4.5056  -4.3565  -4.3399  -3.9791
    -2.8808  -2.0573  -1.9842  -1.8544  -1.6667  -1.6082  -1.4976  -1.4827
    -1.4363  -1.3712  -1.3138  -0.7075   0.6521   0.9846   1.0521   1.1470
     1.2777   1.4644   1.4958   1.5877   1.6064   1.7721

          k = 0.1667-0.4811 0.0000 ( 59291 PWs)   bands (ev):

   -72.8933 -72.8847 -44.4415 -44.3582 -44.2960 -44.2878 -44.2701 -44.2613
   -21.1165 -20.9111 -20.7225 -20.1604 -19.8038 -19.4659 -19.3160 -19.1745
   -19.0133 -18.7787 -18.6409 -18.5423 -18.1482 -18.0875 -17.9215 -17.7227
   -12.3486 -12.1134 -12.0435 -11.9059 -11.6798 -11.6571 -11.5520 -10.9408
   -10.8902 -10.6240 -10.5219  -9.8598  -9.6929  -9.3353  -9.1101  -8.6700
    -8.6223  -8.5527  -8.3880  -8.3662  -8.1606  -8.1247  -8.0628  -8.0485
    -7.6880  -7.6225  -7.4938  -7.4728  -7.3574  -7.1704  -7.0665  -6.8613
    -6.6211  -6.3887  -6.1775  -6.1568  -5.9745  -5.9281  -5.7829  -5.7438
    -5.4504  -5.3985  -5.2106  -5.0401  -4.4443  -4.3463  -4.0898  -3.7666
    -2.8781  -2.0573  -1.9838  -1.8510  -1.6655  -1.6085  -1.5006  -1.4835
    -1.4373  -1.3708  -1.3136  -0.7112   0.5670   0.9742   1.0517   1.1181
     1.2051   1.2568   1.3577   1.8443   1.8994   2.1388

          k = 0.1667-0.0962 0.0000 ( 59226 PWs)   bands (ev):

   -72.8933 -72.8847 -44.4415 -44.3582 -44.2960 -44.2878 -44.2701 -44.2613
   -21.3129 -20.5358 -20.3448 -20.3383 -19.9869 -19.9810 -19.8045 -18.7277
   -18.7233 -18.3780 -18.3620 -18.3575 -18.2720 -18.2551 -18.0751 -18.0709
   -12.5099 -12.4995 -12.4071 -11.5803 -11.5764 -11.4306 -11.4145 -10.9255
   -10.9230  -9.9282  -9.9264  -9.6756  -9.3785  -9.3682  -9.2295  -9.2273
    -9.0411  -9.0396  -8.9242  -8.3224  -8.3210  -7.9028  -7.8965  -7.8830
    -7.8443  -7.7693  -7.6110  -7.5810  -7.1363  -7.0918  -6.9586  -6.8868
    -6.8849  -6.8504  -6.5295  -6.5280  -6.2564  -5.3507  -5.3182  -5.1424
    -5.0643  -4.8126  -4.7890  -4.7572  -4.6227  -4.5973  -4.3524  -4.3309
    -2.8837  -2.0573  -1.9846  -1.8578  -1.6692  -1.6079  -1.4951  -1.4818
    -1.4351  -1.3716  -1.3139  -0.7035   0.7469   0.9496   1.0157   1.1711
     1.2878   1.3276   1.5770   1.5874   1.6782   1.9185

          k =-0.5000-0.8660 0.0000 ( 59292 PWs)   bands (ev):

   -72.8933 -72.8847 -44.4415 -44.3582 -44.2960 -44.2878 -44.2700 -44.2613
   -21.0521 -21.0436 -20.4687 -20.4636 -19.4281 -19.4257 -19.4097 -19.4042
   -18.9936 -18.9856 -18.3288 -18.3248 -18.3172 -18.3017 -17.7913 -17.7885
   -12.0716 -12.0693 -12.0650 -12.0529 -11.8762 -11.8737 -11.3299 -11.3258
   -10.2338 -10.2330 -10.1352 -10.1303 -10.1286 -10.1253  -8.5905  -8.5513
    -8.5473  -8.5456  -8.5442  -8.5353  -7.8646  -7.8616  -7.8600  -7.8582
    -7.8209  -7.8182  -7.7816  -7.7531  -7.4919  -7.4823  -6.6095  -6.6083
    -6.3607  -6.3286  -6.3177  -6.2866  -6.1913  -6.1842  -5.7079  -5.7003
    -5.5469  -5.5385  -4.7261  -4.7170  -4.7064  -4.6857  -3.8858  -3.8684
    -2.8663  -2.0552  -1.9835  -1.8532  -1.6662  -1.6090  -1.4999  -1.4827
    -1.4441  -1.3752  -1.3144  -0.8308   0.7372   1.0607   1.0880   1.2090
     1.4568   1.5360   1.5704   1.6081   1.6280   1.7702

          k =-0.1667 0.2887 0.0000 ( 59267 PWs)   bands (ev):

   -72.8933 -72.8847 -44.4415 -44.3582 -44.2960 -44.2878 -44.2701 -44.2614
   -21.2465 -20.6618 -20.6537 -20.1095 -20.0902 -19.5888 -19.5802 -19.0988
   -18.6985 -18.6894 -18.4619 -18.4445 -18.1937 -18.0851 -18.0760 -17.8485
   -12.4843 -12.2095 -12.1975 -11.8213 -11.8160 -11.6574 -11.1924 -11.1876
   -10.3913 -10.3675 -10.1177 -10.1134  -9.5889  -9.5871  -8.8428  -8.8240
    -8.8193  -8.7676  -8.7585  -8.5955  -8.1962  -8.0513  -8.0179  -7.8302
    -7.8245  -7.4376  -7.4363  -7.2884  -7.2535  -7.2083  -7.2046  -6.9645
    -6.9494  -6.5644  -6.5403  -6.1533  -6.1515  -5.8715  -5.4176  -5.2935
    -5.2774  -5.1992  -4.9203  -4.8927  -4.5056  -4.3565  -4.3399  -3.9791
    -2.8808  -2.0573  -1.9842  -1.8544  -1.6667  -1.6082  -1.4976  -1.4827
    -1.4363  -1.3712  -1.3138  -0.7075   0.6521   0.9846   1.0521   1.1470
     1.2777   1.4643   1.4958   1.5877   1.6063   1.7720

          k = 0.3333 0.0000 0.0000 ( 59267 PWs)   bands (ev):

   -72.8933 -72.8847 -44.4415 -44.3582 -44.2961 -44.2878 -44.2700 -44.2614
   -21.2460 -20.6867 -20.6285 -20.1102 -20.0881 -19.6139 -19.5569 -19.1009
   -18.7149 -18.6678 -18.4651 -18.4432 -18.1896 -18.1078 -18.0598 -17.8476
   -12.4827 -12.2134 -12.1945 -11.8306 -11.8096 -11.6561 -11.2091 -11.1700
   -10.3915 -10.3661 -10.1325 -10.1002  -9.5951  -9.5794  -8.8431  -8.8273
    -8.8127  -8.7881  -8.7394  -8.5959  -8.1984  -8.1054  -7.9628  -7.8283
    -7.8239  -7.4451  -7.4290  -7.3010  -7.2348  -7.2172  -7.1951  -6.9672
    -6.9486  -6.6213  -6.4909  -6.1559  -6.1480  -5.8789  -5.4179  -5.3165
    -5.2422  -5.1994  -4.9299  -4.8857  -4.4972  -4.3894  -4.3204  -3.9776
    -2.8731  -2.0557  -1.9841  -1.8559  -1.6685  -1.6085  -1.4971  -1.4820
    -1.4398  -1.3742  -1.3142  -0.7905   0.7605   1.0630   1.2090   1.2475
     1.2637   1.4618   1.5138   1.5573   1.5947   1.7402

          k =-0.1667-0.4811 0.0000 ( 59291 PWs)   bands (ev):

   -72.8933 -72.8847 -44.4415 -44.3582 -44.2960 -44.2878 -44.2701 -44.2613
   -21.1165 -20.9111 -20.7225 -20.1604 -19.8038 -19.4659 -19.3159 -19.1745
   -19.0133 -18.7787 -18.6409 -18.5423 -18.1482 -18.0875 -17.9215 -17.7227
   -12.3487 -12.1134 -12.0435 -11.9058 -11.6798 -11.6571 -11.5520 -10.9408
   -10.8902 -10.6240 -10.5219  -9.8597  -9.6929  -9.3353  -9.1102  -8.6700
    -8.6222  -8.5527  -8.3880  -8.3662  -8.1605  -8.1247  -8.0628  -8.0486
    -7.6880  -7.6225  -7.4937  -7.4728  -7.3574  -7.1703  -7.0665  -6.8613
    -6.6211  -6.3887  -6.1775  -6.1568  -5.9744  -5.9280  -5.7828  -5.7438
    -5.4505  -5.3985  -5.2106  -5.0401  -4.4443  -4.3463  -4.0898  -3.7666
    -2.8781  -2.0573  -1.9838  -1.8510  -1.6655  -1.6085  -1.5006  -1.4835
    -1.4373  -1.3708  -1.3136  -0.7112   0.5670   0.9742   1.0517   1.1181
     1.2051   1.2568   1.3577   1.8443   1.8993   2.1388

          k = 0.5000-0.0962 0.0000 ( 59291 PWs)   bands (ev):

   -72.8933 -72.8847 -44.4415 -44.3582 -44.2960 -44.2878 -44.2700 -44.2614
   -21.1134 -20.9195 -20.7170 -20.1587 -19.8038 -19.4674 -19.3231 -19.1687
   -19.0146 -18.7790 -18.6304 -18.5491 -18.1365 -18.1045 -17.9177 -17.7225
   -12.3460 -12.1143 -12.0417 -11.9106 -11.6932 -11.6424 -11.5538 -10.9424
   -10.8867 -10.6212 -10.5251  -9.8579  -9.6931  -9.3361  -9.1097  -8.6586
    -8.6226  -8.5502  -8.4033  -8.3903  -8.1586  -8.1024  -8.0756  -8.0366
    -7.6837  -7.6231  -7.4928  -7.4742  -7.3512  -7.1712  -7.0678  -6.8596
    -6.6217  -6.3975  -6.1976  -6.1564  -5.9562  -5.9279  -5.7820  -5.7479
    -5.4515  -5.3987  -5.1848  -5.0561  -4.4202  -4.3787  -4.0845  -3.7662
    -2.8663  -2.0552  -1.9835  -1.8532  -1.6669  -1.6089  -1.5000  -1.4828
    -1.4440  -1.3752  -1.3144  -0.8305   0.7202   1.0480   1.1031   1.2140
     1.2879   1.3582   1.4990   1.7604   1.8425   1.8736

          k =-0.3333-0.3849 0.0000 ( 59291 PWs)   bands (ev):

   -72.8933 -72.8847 -44.4415 -44.3582 -44.2960 -44.2878 -44.2701 -44.2614
   -21.1145 -20.9166 -20.7191 -20.1584 -19.8057 -19.4658 -19.3177 -19.1721
   -19.0179 -18.7768 -18.6318 -18.5485 -18.1387 -18.1016 -17.9179 -17.7227
   -12.3479 -12.1108 -12.0448 -11.9081 -11.6814 -11.6558 -11.5533 -10.9419
   -10.8874 -10.6208 -10.5252  -9.8577  -9.6931  -9.3365  -9.1109  -8.6618
    -8.6215  -8.5521  -8.3900  -8.3879  -8.1600  -8.1110  -8.0629  -8.0511
    -7.6843  -7.6214  -7.4994  -7.4677  -7.3494  -7.1712  -7.0683  -6.8686
    -6.6199  -6.3898  -6.1797  -6.1587  -5.9689  -5.9263  -5.7820  -5.7587
    -5.4515  -5.3916  -5.1861  -5.0572  -4.4228  -4.3755  -4.0841  -3.7665
    -2.8703  -2.0559  -1.9836  -1.8524  -1.6660  -1.6088  -1.5002  -1.4830
    -1.4420  -1.3737  -1.3142  -0.7941   0.6699   1.0364   1.1125   1.2074
     1.2275   1.3245   1.3763   1.8240   1.8944   1.9271

          k = 0.5000 0.0962 0.0000 ( 59291 PWs)   bands (ev):

   -72.8933 -72.8847 -44.4415 -44.3582 -44.2960 -44.2878 -44.2700 -44.2614
   -21.1134 -20.9195 -20.7170 -20.1587 -19.8038 -19.4674 -19.3231 -19.1687
   -19.0146 -18.7790 -18.6304 -18.5491 -18.1365 -18.1045 -17.9177 -17.7225
   -12.3460 -12.1143 -12.0417 -11.9106 -11.6932 -11.6423 -11.5538 -10.9423
   -10.8867 -10.6212 -10.5251  -9.8579  -9.6932  -9.3361  -9.1096  -8.6586
    -8.6226  -8.5502  -8.4033  -8.3903  -8.1586  -8.1024  -8.0756  -8.0366
    -7.6838  -7.6230  -7.4928  -7.4743  -7.3512  -7.1712  -7.0677  -6.8596
    -6.6216  -6.3975  -6.1976  -6.1563  -5.9562  -5.9279  -5.7821  -5.7479
    -5.4515  -5.3987  -5.1848  -5.0561  -4.4202  -4.3787  -4.0845  -3.7662
    -2.8663  -2.0552  -1.9835  -1.8532  -1.6669  -1.6089  -1.5000  -1.4828
    -1.4440  -1.3752  -1.3144  -0.8305   0.7202   1.0480   1.1031   1.2140
     1.2879   1.3581   1.4990   1.7605   1.8425   1.8736

          k =-0.3333 0.3849 0.0000 ( 59291 PWs)   bands (ev):

   -72.8933 -72.8847 -44.4415 -44.3582 -44.2960 -44.2878 -44.2701 -44.2614
   -21.1145 -20.9166 -20.7191 -20.1584 -19.8057 -19.4658 -19.3177 -19.1721
   -19.0179 -18.7768 -18.6318 -18.5485 -18.1387 -18.1017 -17.9179 -17.7227
   -12.3478 -12.1108 -12.0448 -11.9081 -11.6814 -11.6558 -11.5533 -10.9420
   -10.8874 -10.6207 -10.5252  -9.8578  -9.6931  -9.3365  -9.1109  -8.6618
    -8.6216  -8.5521  -8.3900  -8.3879  -8.1600  -8.1110  -8.0629  -8.0510
    -7.6842  -7.6213  -7.4994  -7.4677  -7.3494  -7.1712  -7.0684  -6.8686
    -6.6199  -6.3898  -6.1797  -6.1587  -5.9689  -5.9264  -5.7820  -5.7587
    -5.4513  -5.3916  -5.1861  -5.0572  -4.4228  -4.3755  -4.0840  -3.7665
    -2.8703  -2.0559  -1.9836  -1.8524  -1.6660  -1.6088  -1.5002  -1.4830
    -1.4420  -1.3737  -1.3142  -0.7941   0.6699   1.0364   1.1125   1.2074
     1.2275   1.3245   1.3763   1.8239   1.8945   1.9272

          k =-0.1667-0.0962 0.0000 ( 59226 PWs)   bands (ev):

   -72.8933 -72.8847 -44.4415 -44.3582 -44.2960 -44.2878 -44.2701 -44.2613
   -21.3129 -20.5358 -20.3448 -20.3383 -19.9869 -19.9810 -19.8045 -18.7277
   -18.7233 -18.3780 -18.3620 -18.3575 -18.2720 -18.2551 -18.0751 -18.0708
   -12.5099 -12.4996 -12.4071 -11.5803 -11.5764 -11.4306 -11.4145 -10.9255
   -10.9230  -9.9282  -9.9264  -9.6756  -9.3784  -9.3682  -9.2295  -9.2273
    -9.0411  -9.0396  -8.9242  -8.3225  -8.3210  -7.9027  -7.8965  -7.8830
    -7.8443  -7.7694  -7.6110  -7.5810  -7.1363  -7.0918  -6.9586  -6.8868
    -6.8848  -6.8504  -6.5295  -6.5279  -6.2565  -5.3507  -5.3182  -5.1423
    -5.0644  -4.8126  -4.7890  -4.7572  -4.6227  -4.5973  -4.3524  -4.3309
    -2.8837  -2.0573  -1.9846  -1.8578  -1.6692  -1.6079  -1.4951  -1.4818
    -1.4351  -1.3716  -1.3139  -0.7035   0.7469   0.9496   1.0157   1.1711
     1.2878   1.3277   1.5771   1.5874   1.6782   1.9184

          k =-0.0000-0.1925 0.0000 ( 59226 PWs)   bands (ev):

   -72.8933 -72.8847 -44.4415 -44.3582 -44.2960 -44.2878 -44.2700 -44.2614
   -21.3130 -20.5302 -20.3588 -20.3339 -19.9892 -19.9706 -19.8087 -18.7338
   -18.7127 -18.4064 -18.3601 -18.3501 -18.2536 -18.2529 -18.0852 -18.0666
   -12.5142 -12.4962 -12.4063 -11.5860 -11.5708 -11.4313 -11.4123 -10.9277
   -10.9223  -9.9324  -9.9231  -9.6753  -9.3767  -9.3672  -9.2315  -9.2270
    -9.0409  -9.0405  -8.9248  -8.3249  -8.3181  -7.9027  -7.8960  -7.8628
    -7.8419  -7.7713  -7.6400  -7.5893  -7.1149  -7.0837  -6.9571  -6.8912
    -6.8822  -6.8640  -6.5330  -6.5234  -6.2572  -5.3471  -5.3108  -5.1425
    -5.0642  -4.8590  -4.7902  -4.7480  -4.5931  -4.5880  -4.3628  -4.3315
    -2.8875  -2.0581  -1.9846  -1.8570  -1.6683  -1.6077  -1.4954  -1.4823
    -1.4336  -1.3701  -1.3136  -0.6551   0.6754   0.8628   1.0091   1.1458
     1.2195   1.4000   1.5560   1.5876   1.7080   1.9579

          k = 0.5000-0.8660 0.0000 ( 59292 PWs)   bands (ev):

   -72.8933 -72.8847 -44.4415 -44.3582 -44.2960 -44.2878 -44.2700 -44.2613
   -21.0521 -21.0435 -20.4687 -20.4636 -19.4281 -19.4257 -19.4097 -19.4042
   -18.9937 -18.9855 -18.3288 -18.3248 -18.3172 -18.3017 -17.7913 -17.7885
   -12.0716 -12.0693 -12.0651 -12.0527 -11.8762 -11.8737 -11.3299 -11.3257
   -10.2339 -10.2330 -10.1352 -10.1303 -10.1286 -10.1253  -8.5905  -8.5513
    -8.5473  -8.5456  -8.5441  -8.5352  -7.8646  -7.8616  -7.8601  -7.8582
    -7.8210  -7.8182  -7.7816  -7.7531  -7.4920  -7.4823  -6.6094  -6.6082
    -6.3607  -6.3287  -6.3177  -6.2866  -6.1913  -6.1840  -5.7079  -5.7003
    -5.5471  -5.5386  -4.7260  -4.7171  -4.7063  -4.6858  -3.8858  -3.8684
    -2.8663  -2.0552  -1.9835  -1.8532  -1.6662  -1.6090  -1.4999  -1.4827
    -1.4441  -1.3752  -1.3144  -0.8308   0.7372   1.0607   1.0881   1.2090
     1.4568   1.5360   1.5703   1.6080   1.6280   1.7703

          k =-1.0000 0.0000 0.0000 ( 59292 PWs)   bands (ev):

   -72.8933 -72.8847 -44.4416 -44.3582 -44.2960 -44.2878 -44.2701 -44.2613
   -21.0755 -21.0171 -20.4802 -20.4570 -19.4441 -19.4075 -19.4066 -19.4025
   -19.0150 -18.9673 -18.3799 -18.3138 -18.3023 -18.2763 -17.8007 -17.7814
   -12.1152 -12.0671 -12.0437 -12.0301 -11.8840 -11.8654 -11.3496 -11.3067
   -10.2530 -10.2318 -10.1328 -10.1296 -10.1234 -10.1189  -8.6348  -8.5791
    -8.5494  -8.5314  -8.5132  -8.4886  -7.8817  -7.8718  -7.8606  -7.8498
    -7.8153  -7.8109  -7.7954  -7.7552  -7.5140  -7.4630  -6.6139  -6.6002
    -6.3762  -6.3215  -6.2945  -6.2790  -6.2083  -6.1697  -5.7469  -5.6704
    -5.5665  -5.5196  -4.8155  -4.7228  -4.6625  -4.6367  -3.8945  -3.8630
    -2.8819  -2.0578  -1.9840  -1.8503  -1.6652  -1.6084  -1.5006  -1.4837
    -1.4347  -1.3694  -1.3132  -0.6636   0.5263   0.8569   1.0457   1.0949
     1.2227   1.4335   1.5745   1.6208   1.6389   1.9322

 ------ SPIN DOWN ----------


          k = 0.1667 0.2887 0.0000 ( 59267 PWs)   bands (ev):

   -68.6961 -68.6862 -40.3706 -40.2723 -40.1206 -40.1108 -40.0696 -40.0591
   -21.2424 -20.6588 -20.6485 -20.1050 -20.0865 -19.5861 -19.5749 -19.0946
   -18.6951 -18.6837 -18.4574 -18.4406 -18.1889 -18.0818 -18.0715 -17.8441
   -12.4813 -12.2062 -12.1949 -11.8188 -11.8134 -11.6551 -11.1901 -11.1839
   -10.3882 -10.3644 -10.1153 -10.1096  -9.5863  -9.5840  -8.8286  -8.8160
    -8.8138  -8.7657  -8.7552  -8.5929  -8.1937  -8.0252  -8.0079  -7.8275
    -7.8221  -7.4346  -7.4324  -7.2681  -7.2391  -7.2063  -7.2015  -6.9617
    -6.9470  -6.5414  -6.5320  -6.1506  -6.1488  -5.8547  -5.4144  -5.2737
    -5.2611  -5.1965  -4.9046  -4.8797  -4.4887  -4.3418  -4.3285  -3.9647
    -1.4422   0.3888   0.9152   1.0461   1.0792   1.1806   1.2364   1.3387
     1.3760   1.4948   1.5088   1.5732   1.6429   1.6981   1.8566   2.0134
     2.0369   2.1173   2.1371   2.1931   2.2493   2.3034

          k = 0.1667-0.4811 0.0000 ( 59291 PWs)   bands (ev):

   -68.6961 -68.6862 -40.3706 -40.2723 -40.1206 -40.1108 -40.0696 -40.0591
   -21.1120 -20.9077 -20.7182 -20.1561 -19.7998 -19.4619 -19.3120 -19.1700
   -19.0092 -18.7747 -18.6353 -18.5391 -18.1424 -18.0851 -17.9169 -17.7183
   -12.3455 -12.1104 -12.0410 -11.9032 -11.6780 -11.6540 -11.5493 -10.9380
   -10.8868 -10.6204 -10.5193  -9.8563  -9.6900  -9.3321  -9.1074  -8.6449
    -8.6195  -8.5493  -8.3856  -8.3539  -8.1579  -8.1062  -8.0606  -8.0457
    -7.6850  -7.6198  -7.4911  -7.4703  -7.3385  -7.1670  -7.0641  -6.8445
    -6.6177  -6.3727  -6.1605  -6.1541  -5.9576  -5.9248  -5.7800  -5.7285
    -5.4478  -5.3830  -5.1875  -5.0305  -4.4237  -4.3391  -4.0749  -3.7526
    -1.4330   0.3776   0.8890   0.9962   1.0721   1.1403   1.1721   1.2310
     1.2875   1.4544   1.5227   1.7424   1.7657   1.8024   1.8846   2.0879
     2.1193   2.1369   2.1716   2.2037   2.2752   2.2974

          k = 0.1667-0.0962 0.0000 ( 59226 PWs)   bands (ev):

   -68.6961 -68.6862 -40.3706 -40.2723 -40.1206 -40.1108 -40.0696 -40.0591
   -21.3088 -20.5312 -20.3409 -20.3348 -19.9820 -19.9772 -19.8009 -18.7228
   -18.7190 -18.3734 -18.3582 -18.3532 -18.2674 -18.2504 -18.0709 -18.0674
   -12.5068 -12.4968 -12.4044 -11.5774 -11.5741 -11.4275 -11.4120 -10.9223
   -10.9204  -9.9252  -9.9237  -9.6723  -9.3753  -9.3654  -9.2261  -9.2243
    -9.0383  -9.0368  -8.9046  -8.3189  -8.3179  -7.8995  -7.8940  -7.8597
    -7.8402  -7.7669  -7.5929  -7.5705  -7.1095  -7.0807  -6.9559  -6.8841
    -6.8826  -6.8394  -6.5266  -6.5255  -6.2539  -5.3264  -5.3056  -5.1394
    -5.0615  -4.7958  -4.7733  -4.7419  -4.6071  -4.5842  -4.3352  -4.3214
    -1.4513   0.4026   0.9383   1.0130   1.0622   1.1111   1.1889   1.3395
     1.4174   1.5145   1.5869   1.6391   1.7454   1.8416   1.8888   1.9243
     2.0205   2.0428   2.1199   2.1793   2.2200   2.3017

          k =-0.5000-0.8660 0.0000 ( 59292 PWs)   bands (ev):

   -68.6961 -68.6862 -40.3706 -40.2723 -40.1206 -40.1108 -40.0696 -40.0591
   -21.0493 -21.0380 -20.4646 -20.4599 -19.4234 -19.4210 -19.4052 -19.4009
   -18.9912 -18.9801 -18.3247 -18.3197 -18.3161 -18.2946 -17.7868 -17.7845
   -12.0690 -12.0658 -12.0636 -12.0489 -11.8735 -11.8716 -11.3277 -11.3220
   -10.2308 -10.2302 -10.1316 -10.1275 -10.1253 -10.1227  -8.5605  -8.5464
    -8.5444  -8.5411  -8.5383  -8.5314  -7.8615  -7.8587  -7.8575  -7.8556
    -7.8168  -7.8148  -7.7634  -7.7420  -7.4904  -7.4790  -6.6061  -6.6059
    -6.3312  -6.3097  -6.3026  -6.2775  -6.1890  -6.1805  -5.6936  -5.6858
    -5.5452  -5.5347  -4.7084  -4.7023  -4.6828  -4.6806  -3.8686  -3.8580
    -1.4095   0.1425   0.9527   0.9871   1.0445   1.1942   1.2239   1.3592
     1.4692   1.5170   1.5849   1.7038   1.7464   1.8711   1.9164   1.9247
     1.9897   2.0697   2.1967   2.2376   2.2906   2.3296

          k =-0.1667 0.2887 0.0000 ( 59267 PWs)   bands (ev):

   -68.6961 -68.6862 -40.3706 -40.2723 -40.1206 -40.1108 -40.0696 -40.0591
   -21.2424 -20.6588 -20.6485 -20.1050 -20.0865 -19.5861 -19.5748 -19.0946
   -18.6952 -18.6836 -18.4574 -18.4406 -18.1889 -18.0818 -18.0714 -17.8441
   -12.4813 -12.2063 -12.1949 -11.8188 -11.8134 -11.6551 -11.1902 -11.1839
   -10.3882 -10.3644 -10.1154 -10.1095  -9.5863  -9.5839  -8.8286  -8.8159
    -8.8138  -8.7658  -8.7552  -8.5928  -8.1938  -8.0252  -8.0080  -7.8275
    -7.8220  -7.4346  -7.4324  -7.2681  -7.2391  -7.2063  -7.2015  -6.9617
    -6.9471  -6.5414  -6.5320  -6.1506  -6.1487  -5.8547  -5.4144  -5.2737
    -5.2611  -5.1964  -4.9046  -4.8797  -4.4887  -4.3418  -4.3284  -3.9647
    -1.4422   0.3888   0.9152   1.0461   1.0792   1.1806   1.2364   1.3387
     1.3759   1.4948   1.5088   1.5732   1.6429   1.6981   1.8566   2.0136
     2.0369   2.1173   2.1369   2.1931   2.2493   2.3037

          k = 0.3333 0.0000 0.0000 ( 59267 PWs)   bands (ev):

   -68.6961 -68.6862 -40.3706 -40.2723 -40.1206 -40.1108 -40.0696 -40.0591
   -21.2420 -20.6806 -20.6266 -20.1056 -20.0847 -19.6077 -19.5548 -19.0964
   -18.7085 -18.6659 -18.4603 -18.4393 -18.1856 -18.1007 -18.0577 -17.8434
   -12.4801 -12.2092 -12.1925 -11.8271 -11.8074 -11.6538 -11.2053 -11.1683
   -10.3881 -10.3634 -10.1276 -10.0985  -9.5917  -9.5774  -8.8287  -8.8205
    -8.8069  -8.7841  -8.7381  -8.5933  -8.1955  -8.0739  -7.9588  -7.8258
    -7.8216  -7.4405  -7.4267  -7.2768  -7.2260  -7.2139  -7.1933  -6.9639
    -6.9464  -6.5923  -6.4865  -6.1529  -6.1457  -5.8599  -5.4145  -5.2930
    -5.2332  -5.1966  -4.9123  -4.8742  -4.4822  -4.3686  -4.3110  -3.9638
    -1.4272   0.2224   0.9495   1.0484   1.0840   1.1494   1.2092   1.3849
     1.4807   1.5097   1.5390   1.6124   1.7694   1.8561   1.8939   1.9258
     2.0326   2.0526   2.1409   2.1895   2.2551   2.3923

          k =-0.1667-0.4811 0.0000 ( 59291 PWs)   bands (ev):

   -68.6961 -68.6862 -40.3706 -40.2723 -40.1206 -40.1108 -40.0696 -40.0591
   -21.1120 -20.9077 -20.7182 -20.1561 -19.7998 -19.4618 -19.3120 -19.1700
   -19.0093 -18.7747 -18.6353 -18.5390 -18.1424 -18.0851 -17.9169 -17.7183
   -12.3455 -12.1104 -12.0410 -11.9032 -11.6779 -11.6540 -11.5493 -10.9380
   -10.8868 -10.6204 -10.5193  -9.8563  -9.6900  -9.3322  -9.1075  -8.6449
    -8.6195  -8.5494  -8.3856  -8.3539  -8.1579  -8.1062  -8.0606  -8.0458
    -7.6850  -7.6199  -7.4911  -7.4703  -7.3385  -7.1670  -7.0640  -6.8445
    -6.6178  -6.3728  -6.1605  -6.1541  -5.9576  -5.9247  -5.7800  -5.7285
    -5.4478  -5.3830  -5.1875  -5.0306  -4.4237  -4.3391  -4.0749  -3.7526
    -1.4330   0.3776   0.8890   0.9962   1.0722   1.1403   1.1721   1.2310
     1.2875   1.4544   1.5227   1.7424   1.7657   1.8024   1.8846   2.0879
     2.1193   2.1369   2.1716   2.2037   2.2751   2.2975

          k = 0.5000-0.0962 0.0000 ( 59291 PWs)   bands (ev):

   -68.6961 -68.6862 -40.3706 -40.2723 -40.1206 -40.1108 -40.0696 -40.0592
   -21.1094 -20.9149 -20.7135 -20.1547 -19.7997 -19.4631 -19.3181 -19.1652
   -19.0103 -18.7747 -18.6266 -18.5447 -18.1328 -18.0990 -17.9138 -17.7181
   -12.3435 -12.1112 -12.0393 -11.9074 -11.6897 -11.6408 -11.5509 -10.9391
   -10.8839 -10.6182 -10.5220  -9.8547  -9.6903  -9.3329  -9.1070  -8.6372
    -8.6196  -8.5473  -8.3907  -8.3769  -8.1561  -8.0907  -8.0720  -8.0351
    -7.6813  -7.6204  -7.4902  -7.4716  -7.3341  -7.1679  -7.0650  -6.8435
    -6.6182  -6.3781  -6.1752  -6.1538  -5.9453  -5.9246  -5.7792  -5.7309
    -5.4487  -5.3832  -5.1692  -5.0419  -4.4051  -4.3631  -4.0713  -3.7526
    -1.4096   0.1443   0.9382   0.9801   1.0521   1.1528   1.2082   1.2321
     1.3311   1.5972   1.7105   1.7353   1.8207   1.8991   1.9569   1.9896
     2.0589   2.1459   2.2100   2.2587   2.2746   2.3173

          k =-0.3333-0.3849 0.0000 ( 59291 PWs)   bands (ev):

   -68.6961 -68.6862 -40.3706 -40.2723 -40.1206 -40.1108 -40.0696 -40.0592
   -21.1103 -20.9124 -20.7153 -20.1545 -19.8014 -19.4617 -19.3135 -19.1680
   -19.0132 -18.7729 -18.6277 -18.5443 -18.1345 -18.0968 -17.9140 -17.7183
   -12.3449 -12.1083 -12.0420 -11.9054 -11.6793 -11.6527 -11.5504 -10.9388
   -10.8844 -10.6177 -10.5222  -9.8547  -9.6904  -9.3332  -9.1079  -8.6392
    -8.6189  -8.5488  -8.3870  -8.3692  -8.1574  -8.0967  -8.0608  -8.0478
    -7.6818  -7.6188  -7.4961  -7.4659  -7.3331  -7.1679  -7.0655  -6.8495
    -6.6166  -6.3732  -6.1627  -6.1554  -5.9539  -5.9233  -5.7793  -5.7388
    -5.4486  -5.3785  -5.1702  -5.0422  -4.4074  -4.3605  -4.0710  -3.7527
    -1.4176   0.2099   0.9247   0.9790   1.0463   1.1737   1.2164   1.2475
     1.2911   1.5045   1.6858   1.7564   1.8333   1.8667   1.9565   2.0216
     2.0610   2.0993   2.1503   2.2306   2.2751   2.3216

          k = 0.5000 0.0962 0.0000 ( 59291 PWs)   bands (ev):

   -68.6961 -68.6862 -40.3706 -40.2723 -40.1206 -40.1108 -40.0696 -40.0592
   -21.1094 -20.9149 -20.7136 -20.1547 -19.7997 -19.4631 -19.3181 -19.1652
   -19.0103 -18.7747 -18.6266 -18.5447 -18.1328 -18.0990 -17.9138 -17.7181
   -12.3435 -12.1112 -12.0393 -11.9074 -11.6897 -11.6408 -11.5509 -10.9391
   -10.8839 -10.6182 -10.5220  -9.8547  -9.6904  -9.3329  -9.1070  -8.6372
    -8.6196  -8.5473  -8.3907  -8.3769  -8.1561  -8.0907  -8.0720  -8.0351
    -7.6814  -7.6204  -7.4902  -7.4716  -7.3341  -7.1679  -7.0650  -6.8435
    -6.6181  -6.3781  -6.1752  -6.1537  -5.9454  -5.9245  -5.7793  -5.7309
    -5.4487  -5.3832  -5.1692  -5.0418  -4.4051  -4.3631  -4.0713  -3.7526
    -1.4096   0.1442   0.9382   0.9801   1.0522   1.1529   1.2082   1.2321
     1.3311   1.5972   1.7105   1.7353   1.8207   1.8991   1.9569   1.9896
     2.0588   2.1459   2.2098   2.2584   2.2740   2.3167

          k =-0.3333 0.3849 0.0000 ( 59291 PWs)   bands (ev):

   -68.6961 -68.6862 -40.3706 -40.2723 -40.1206 -40.1108 -40.0696 -40.0592
   -21.1103 -20.9124 -20.7153 -20.1545 -19.8014 -19.4617 -19.3135 -19.1680
   -19.0132 -18.7729 -18.6277 -18.5443 -18.1344 -18.0968 -17.9140 -17.7183
   -12.3448 -12.1083 -12.0420 -11.9054 -11.6793 -11.6527 -11.5504 -10.9388
   -10.8844 -10.6177 -10.5222  -9.8547  -9.6903  -9.3331  -9.1079  -8.6392
    -8.6189  -8.5488  -8.3870  -8.3692  -8.1575  -8.0967  -8.0608  -8.0477
    -7.6818  -7.6188  -7.4961  -7.4659  -7.3331  -7.1679  -7.0656  -6.8495
    -6.6166  -6.3732  -6.1627  -6.1554  -5.9539  -5.9234  -5.7793  -5.7388
    -5.4485  -5.3785  -5.1703  -5.0422  -4.4074  -4.3605  -4.0710  -3.7527
    -1.4176   0.2100   0.9247   0.9790   1.0463   1.1737   1.2164   1.2475
     1.2911   1.5045   1.6858   1.7565   1.8333   1.8667   1.9565   2.0217
     2.0610   2.0992   2.1504   2.2306   2.2752   2.3222

          k =-0.1667-0.0962 0.0000 ( 59226 PWs)   bands (ev):

   -68.6961 -68.6862 -40.3706 -40.2723 -40.1206 -40.1108 -40.0696 -40.0591
   -21.3088 -20.5312 -20.3409 -20.3348 -19.9821 -19.9772 -19.8009 -18.7228
   -18.7190 -18.3734 -18.3582 -18.3532 -18.2674 -18.2504 -18.0709 -18.0673
   -12.5068 -12.4968 -12.4043 -11.5774 -11.5741 -11.4275 -11.4121 -10.9223
   -10.9204  -9.9252  -9.9237  -9.6723  -9.3753  -9.3654  -9.2261  -9.2244
    -9.0383  -9.0369  -8.9046  -8.3189  -8.3179  -7.8995  -7.8939  -7.8597
    -7.8402  -7.7670  -7.5929  -7.5705  -7.1095  -7.0807  -6.9559  -6.8841
    -6.8825  -6.8394  -6.5266  -6.5255  -6.2539  -5.3264  -5.3056  -5.1393
    -5.0616  -4.7958  -4.7733  -4.7419  -4.6071  -4.5842  -4.3352  -4.3214
    -1.4513   0.4025   0.9383   1.0130   1.0622   1.1111   1.1889   1.3395
     1.4174   1.5145   1.5869   1.6391   1.7454   1.8416   1.8888   1.9242
     2.0205   2.0428   2.1200   2.1793   2.2202   2.3026

          k =-0.0000-0.1925 0.0000 ( 59226 PWs)   bands (ev):

   -68.6961 -68.6862 -40.3706 -40.2722 -40.1206 -40.1108 -40.0696 -40.0591
   -21.3089 -20.5264 -20.3538 -20.3299 -19.9852 -19.9672 -19.8045 -18.7292
   -18.7089 -18.3988 -18.3559 -18.3459 -18.2511 -18.2498 -18.0806 -18.0624
   -12.5101 -12.4943 -12.4037 -11.5833 -11.5685 -11.4276 -11.4104 -10.9246
   -10.9195  -9.9292  -9.9202  -9.6722  -9.3739  -9.3646  -9.2279  -9.2237
    -9.0380  -9.0378  -8.9050  -8.3216  -8.3148  -7.9000  -7.8937  -7.8475
    -7.8359  -7.7686  -7.6151  -7.5740  -7.0992  -7.0704  -6.9546  -6.8883
    -6.8797  -6.8491  -6.5304  -6.5210  -6.2545  -5.3282  -5.2959  -5.1395
    -5.0613  -4.8324  -4.7721  -4.7337  -4.5867  -4.5774  -4.3465  -4.3177
    -1.4584   0.5262   0.9133   1.0123   1.0373   1.1424   1.1900   1.2827
     1.3674   1.4956   1.5213   1.5684   1.7520   1.8264   1.8523   1.9860
     2.0273   2.0593   2.0952   2.1644   2.2287   2.2724

          k = 0.5000-0.8660 0.0000 ( 59292 PWs)   bands (ev):

   -68.6961 -68.6862 -40.3706 -40.2723 -40.1206 -40.1108 -40.0696 -40.0591
   -21.0493 -21.0380 -20.4646 -20.4599 -19.4235 -19.4210 -19.4052 -19.4009
   -18.9912 -18.9800 -18.3247 -18.3197 -18.3162 -18.2945 -17.7868 -17.7844
   -12.0690 -12.0658 -12.0637 -12.0488 -11.8735 -11.8715 -11.3277 -11.3219
   -10.2308 -10.2302 -10.1316 -10.1275 -10.1253 -10.1227  -8.5604  -8.5465
    -8.5445  -8.5410  -8.5384  -8.5312  -7.8615  -7.8587  -7.8575  -7.8556
    -7.8169  -7.8148  -7.7634  -7.7420  -7.4904  -7.4791  -6.6060  -6.6058
    -6.3312  -6.3097  -6.3026  -6.2775  -6.1890  -6.1803  -5.6937  -5.6858
    -5.5453  -5.5348  -4.7083  -4.7023  -4.6829  -4.6806  -3.8687  -3.8580
    -1.4095   0.1424   0.9527   0.9872   1.0446   1.1942   1.2239   1.3592
     1.4692   1.5170   1.5849   1.7038   1.7464   1.8711   1.9163   1.9247
     1.9897   2.0698   2.1966   2.2376   2.2906   2.3297

          k =-1.0000 0.0000 0.0000 ( 59292 PWs)   bands (ev):

   -68.6961 -68.6862 -40.3706 -40.2723 -40.1206 -40.1108 -40.0696 -40.0591
   -21.0695 -21.0151 -20.4755 -20.4531 -19.4389 -19.4036 -19.4031 -19.3990
   -19.0084 -18.9653 -18.3711 -18.3082 -18.2999 -18.2758 -17.7959 -17.7772
   -12.1083 -12.0648 -12.0422 -12.0293 -11.8815 -11.8635 -11.3455 -11.3051
   -10.2480 -10.2281 -10.1301 -10.1271 -10.1205 -10.1166  -8.6019  -8.5746
    -8.5465  -8.5292  -8.5125  -8.4847  -7.8774  -7.8683  -7.8573  -7.8472
    -7.8087  -7.8086  -7.7773  -7.7407  -7.5100  -7.4619  -6.6111  -6.5979
    -6.3503  -6.3003  -6.2839  -6.2709  -6.2039  -6.1677  -5.7236  -5.6617
    -5.5620  -5.5183  -4.7849  -4.6992  -4.6570  -4.6353  -3.8791  -3.8497
    -1.4404   0.4944   0.8765   1.0297   1.0625   1.1712   1.2212   1.2700
     1.2759   1.3178   1.6082   1.6362   1.6785   1.7663   1.7757   1.8904
     2.0970   2.1485   2.1516   2.2123   2.2917   2.3218

     the Fermi energy is    -1.1367 ev

!    total energy              =   -1133.82831836 Ry

     total all-electron energy =     -6753.504021 Ry
     estimated scf accuracy    <       0.00000007 Ry
     smearing contrib. (-TS)   =      -0.00000000 Ry
     internal energy E=F+TS    =   -1133.82831836 Ry

     The total energy is F=E-TS. E is the sum of the following terms:
     one-electron contribution =   -3953.42501020 Ry
     hartree contribution      =    2004.89598940 Ry
     xc contribution           =    -186.02204452 Ry
     ewald contribution        =    1360.09911027 Ry
     DFT-D3 Dispersion         =      -0.13344842 Ry
     one-center paw contrib.   =    -359.24291490 Ry

     total magnetization       =    10.00 Bohr mag/cell
     absolute magnetization    =    10.01 Bohr mag/cell

     convergence has been achieved in  14 iterations

     Writing output data file ./mytmp/Crdimer0.141-0.3.save/
 
     init_run     :     18.55s CPU     19.84s WALL (       1 calls)
     electrons    :    487.76s CPU    521.24s WALL (       1 calls)

     Called by init_run:
     wfcinit      :     13.81s CPU     14.65s WALL (       1 calls)
     potinit      :      1.52s CPU      1.59s WALL (       1 calls)
     hinit0       :      1.53s CPU      1.62s WALL (       1 calls)

     Called by electrons:
     c_bands      :    390.60s CPU    415.47s WALL (      14 calls)
     sum_band     :     75.08s CPU     80.30s WALL (      14 calls)
     v_of_rho     :      4.59s CPU      4.95s WALL (      15 calls)
     newd         :      9.36s CPU     12.45s WALL (      15 calls)
     PAW_pot      :      7.43s CPU      7.50s WALL (      15 calls)
     mix_rho      :      0.99s CPU      1.03s WALL (      14 calls)

     Called by c_bands:
     init_us_2    :      5.00s CPU      5.07s WALL (     870 calls)
     cegterg      :    378.18s CPU    402.97s WALL (     420 calls)

     Called by *egterg:
     cdiaghg      :     24.48s CPU     39.53s WALL (    2748 calls)
     h_psi        :    244.10s CPU    253.22s WALL (    2778 calls)
     s_psi        :     27.39s CPU     27.49s WALL (    2778 calls)
     g_psi        :      0.71s CPU      0.73s WALL (    2328 calls)

     Called by h_psi:
     h_psi:calbec :     28.08s CPU     28.77s WALL (    2778 calls)
     vloc_psi     :    186.24s CPU    194.50s WALL (    2778 calls)
     add_vuspsi   :     27.65s CPU     27.81s WALL (    2778 calls)

     General routines
     calbec       :     37.45s CPU     38.30s WALL (    3198 calls)
     fft          :      4.10s CPU      4.81s WALL (     369 calls)
     ffts         :      0.11s CPU      0.12s WALL (      58 calls)
     fftw         :    191.89s CPU    200.29s WALL (  250546 calls)
     interpolate  :      0.40s CPU      0.44s WALL (      30 calls)
 
     Parallel routines
     fft_scatt_xy :     30.39s CPU     31.51s WALL (  250973 calls)
     fft_scatt_yz :     75.69s CPU     80.17s WALL (  250973 calls)
 
     PWSCF        :   8m28.26s CPU   9m 5.14s WALL

 
   This run was terminated on:  12:27:29   2Apr2021            

=------------------------------------------------------------------------------=
   JOB DONE.
=------------------------------------------------------------------------------=
