
     Program PWSCF v.6.7MaX starts on  2Apr2021 at 13:12:55 

     This program is part of the open-source Quantum ESPRESSO suite
     for quantum simulation of materials; please cite
         "P. Giannozzi et al., J. Phys.:Condens. Matter 21 395502 (2009);
         "P. Giannozzi et al., J. Phys.:Condens. Matter 29 465901 (2017);
          URL http://www.quantum-espresso.org", 
     in publications or presentations arising from this work. More details at
     http://www.quantum-espresso.org/quote

     Parallel version (MPI), running on    48 processors

     MPI processes distributed on     1 nodes
     R & G space division:  proc/nbgrp/npool/nimage =      48
     Reading input from Crdimer0.1415-0.3.scf.in

     Current dimensions of program PWSCF are:
     Max number of different atomic species (ntypx) = 10
     Max number of k-points (npk) =  40000
     Max angular momentum in pseudopotentials (lmaxx) =  3
     file N.pbe-n-kjpaw_psl.1.0.0.UPF: wavefunction(s)  2S renormalized
     file Cr.pbe-spn-kjpaw_psl.1.0.0.UPF: wavefunction(s)  3S 3P 3D renormalized
     file Cr.pbe-spn-kjpaw_psl.1.0.0.UPF: wavefunction(s)  3S 3P 3D renormalized

     --------------------------------------------
     Parameters for DFT-D3 Dispersion Correction:
     --------------------------------------------
       Reference C6 values for interpolation: 

         atom   Coordination number   C6
         B          0.000           214.36
         B          0.971           150.74
         B          1.944           106.23
         B          2.913            62.89
         B          4.586            56.06
         N          0.000            50.54
         N          0.994            44.25
         N          2.014            39.35
         N          2.990            31.16
         Cr1        0.000          1381.48
         Cr1        1.827           571.38
         Cr1       10.619           306.69
         Cr2        0.000          1381.48
         Cr2        1.827           571.38
         Cr2       10.619           306.69

       Values used:

         atom   Coordination number  R0_AB[au]  C6      C8
         B          3.338            3.039     62.89   2505.93
         B          3.335            3.039     62.89   2506.00
         B          3.338            3.039     62.89   2505.95
         B          3.335            3.039     62.89   2506.01
         B          3.380            3.039     62.86   2504.75
         B          3.335            3.039     62.89   2506.01
         N          3.135            2.478     31.22    688.69
         N          3.136            2.478     31.22    688.68
         N          3.140            2.478     31.22    688.65
         N          3.135            2.478     31.22    688.69
         N          3.154            2.478     31.21    688.53
         N          3.134            2.478     31.22    688.69
         N          3.149            2.478     31.21    688.56
         N          3.134            2.478     31.22    688.70
         N          3.134            2.478     31.22    688.70
         B          3.341            3.039     62.89   2505.87
         B          3.335            3.039     62.89   2506.00
         B          3.335            3.039     62.89   2506.01
         B          3.380            3.039     62.86   2504.75
         B          3.338            3.039     62.89   2505.93
         B          3.341            3.039     62.89   2505.87
         N          3.149            2.478     31.21    688.56
         B          3.336            3.039     62.89   2506.00
         B          3.343            3.039     62.89   2505.81
         B          3.337            3.039     62.89   2505.97
         N          3.134            2.478     31.22    688.69
         N          3.136            2.478     31.22    688.68
         N          3.134            2.478     31.22    688.70
         N          3.134            2.478     31.22    688.70
         N          3.140            2.478     31.22    688.65
         N          3.135            2.478     31.22    688.69
         B          3.337            3.039     62.89   2505.97
         Cr1        0.738            3.252   1308.61 120769.83
         Cr2        0.738            3.252   1308.61 120769.83

         Molecular C6 ( Ry / a.u.^6 ) =     78324.95


     Subspace diagonalization in iterative solution of the eigenvalue problem:
     one sub-group per band group will be used
     scalapack distributed-memory algorithm (size of sub-group:  6*  6 procs)

 
     Parallelization info
     --------------------
     sticks:   dense  smooth     PW     G-vecs:    dense   smooth      PW
     Min         235      98     26                36277     9874    1408
     Max         236      99     27                36282     9883    1425
     Sum       11311    4741   1285              1741401   474235   68095
 


     bravais-lattice index     =            4
     lattice parameter (alat)  =      18.9275  a.u.
     unit-cell volume          =   10553.3021 (a.u.)^3
     number of atoms/cell      =           34
     number of atomic types    =            4
     number of electrons       =       156.00
     number of Kohn-Sham states=           94
     kinetic-energy cutoff     =      48.0000  Ry
     charge density cutoff     =     457.0000  Ry
     scf convergence threshold =      1.0E-07
     mixing beta               =       0.5000
     number of iterations used =            8  plain     mixing
     Exchange-correlation= SLA  PW   PBX  PBC
                           (   1   4   3   4   0   0   0)

     celldm(1)=  18.927497  celldm(2)=   0.000000  celldm(3)=   1.797125
     celldm(4)=   0.000000  celldm(5)=   0.000000  celldm(6)=   0.000000

     crystal axes: (cart. coord. in units of alat)
               a(1) = (   1.000000   0.000000   0.000000 )  
               a(2) = (  -0.500000   0.866025   0.000000 )  
               a(3) = (   0.000000   0.000000   1.797125 )  

     reciprocal axes: (cart. coord. in units 2 pi/alat)
               b(1) = (  1.000000  0.577350  0.000000 )  
               b(2) = (  0.000000  1.154701  0.000000 )  
               b(3) = (  0.000000  0.000000  0.556444 )  


     PseudoPot. # 1 for B  read from file:
     /home/sf05/q-e-qe-6.7MaX-Release/pseudo/B.pbe-n-kjpaw_psl.1.0.0.UPF
     MD5 check sum: d9c678ba5d3b2fd7b74e61139c9288d8
     Pseudo is Projector augmented-wave + core cor, Zval =  3.0
     Generated using "atomic" code by A. Dal Corso  v.5.1.2
     Shape of augmentation charge: PSQ
     Using radial grid of 1059 points,  4 beta functions with: 
                l(1) =   0
                l(2) =   0
                l(3) =   1
                l(4) =   1
     Q(r) pseudized with 0 coefficients 


     PseudoPot. # 2 for N  read from file:
     /home/sf05/q-e-qe-6.7MaX-Release/pseudo/N.pbe-n-kjpaw_psl.1.0.0.UPF
     MD5 check sum: e0e4e94a9c4025c5b51bd7d8793849bd
     Pseudo is Projector augmented-wave + core cor, Zval =  5.0
     Generated using "atomic" code by A. Dal Corso  v.5.1.2
     Shape of augmentation charge: PSQ
     Using radial grid of 1085 points,  4 beta functions with: 
                l(1) =   0
                l(2) =   0
                l(3) =   1
                l(4) =   1
     Q(r) pseudized with 0 coefficients 


     PseudoPot. # 3 for Cr read from file:
     /home/sf05/q-e-qe-6.7MaX-Release/pseudo/Cr.pbe-spn-kjpaw_psl.1.0.0.UPF
     MD5 check sum: 198f1a2427a48552563eee314eba32ba
     Pseudo is Projector augmented-wave + core cor, Zval = 14.0
     Generated using &quot;atomic&quot; code by A. Dal Corso  v.6.3
     Shape of augmentation charge: PSQ
     Using radial grid of 1183 points,  6 beta functions with: 
                l(1) =   0
                l(2) =   0
                l(3) =   1
                l(4) =   1
                l(5) =   2
                l(6) =   2
     Q(r) pseudized with 0 coefficients 


     PseudoPot. # 4 for Cr read from file:
     /home/sf05/q-e-qe-6.7MaX-Release/pseudo/Cr.pbe-spn-kjpaw_psl.1.0.0.UPF
     MD5 check sum: 198f1a2427a48552563eee314eba32ba
     Pseudo is Projector augmented-wave + core cor, Zval = 14.0
     Generated using &quot;atomic&quot; code by A. Dal Corso  v.6.3
     Shape of augmentation charge: PSQ
     Using radial grid of 1183 points,  6 beta functions with: 
                l(1) =   0
                l(2) =   0
                l(3) =   1
                l(4) =   1
                l(5) =   2
                l(6) =   2
     Q(r) pseudized with 0 coefficients 


     atomic species   valence    mass     pseudopotential
        B              3.00    10.81100     B ( 1.00)
        N              5.00    14.00674     N ( 1.00)
        Cr1           14.00    51.99610     Cr( 1.00)
        Cr2           14.00    51.99610     Cr( 1.00)

     Starting magnetic structure 
     atomic species   magnetization
        B            0.000
        N            0.000
        Cr1          1.000
        Cr2          1.000

     No symmetry found



   Cartesian axes

     site n.     atom                  positions (alat units)
         1           B   tau(   1) = (  -0.1250000   0.2165064   0.8985623  )
         2           B   tau(   2) = (   0.3750000   0.6495191   0.8985623  )
         3           B   tau(   3) = (   0.2500000   0.0000000   0.8985623  )
         4           B   tau(   4) = (   0.7500000   0.0000000   0.8985623  )
         5           B   tau(   5) = (   0.1250000   0.2165064   0.8985623  )
         6           B   tau(   6) = (  -0.3750000   0.6495191   0.8985623  )
         7           N   tau(   7) = (   0.7500005   0.2886748   0.8985623  )
         8           N   tau(   8) = (   0.3750005   0.5051812   0.8985623  )
         9           N   tau(   9) = (   0.3750005   0.0721685   0.8985623  )
        10           N   tau(  10) = (   0.6250005   0.0721685   0.8985623  )
        11           N   tau(  11) = (   0.2500005   0.2886748   0.8985623  )
        12           N   tau(  12) = (   0.6250005   0.5051812   0.8985623  )
        13           N   tau(  13) = (   0.0000005   0.2886748   0.8985623  )
        14           N   tau(  14) = (   0.2500005   0.7216875   0.8985623  )
        15           N   tau(  15) = (  -0.2499995   0.7216875   0.8985623  )
        16           B   tau(  16) = (   0.0000000   0.4330127   0.8985623  )
        17           B   tau(  17) = (   0.1250000   0.6495191   0.8985623  )
        18           B   tau(  18) = (  -0.1250000   0.6495191   0.8985623  )
        19           B   tau(  19) = (   0.3750000   0.2165064   0.8985623  )
        20           B   tau(  20) = (   0.6250000   0.2165064   0.8985623  )
        21           B   tau(  21) = (   0.5000000   0.4330127   0.8985623  )
        22           N   tau(  22) = (   0.5000005   0.2886748   0.8985623  )
        23           B   tau(  23) = (  -0.2500000   0.4330127   0.8985623  )
        24           B   tau(  24) = (   0.2500000   0.4330127   0.8985623  )
        25           B   tau(  25) = (   0.5000000   0.0000000   0.8985623  )
        26           N   tau(  26) = (  -0.1249995   0.5051812   0.8985623  )
        27           N   tau(  27) = (   0.1250005   0.5051812   0.8985623  )
        28           N   tau(  28) = (   0.0000005   0.7216875   0.8985623  )
        29           N   tau(  29) = (   0.5000005   0.7216875   0.8985623  )
        30           N   tau(  30) = (   0.1250005   0.0721685   0.8985623  )
        31           N   tau(  31) = (   0.8750005   0.0721685   0.8985623  )
        32           B   tau(  32) = (   0.0000000   0.0000000   0.8985623  )
        33           Cr1 tau(  33) = (   0.3915000   0.2598076   1.2040735  )
        34           Cr2 tau(  34) = (   0.1085000   0.2598076   1.2040735  )

     number of k points=    15  Gaussian smearing, width (Ry)=  0.0000
                       cart. coord. in units 2pi/alat
        k(    1) = (   0.1666667   0.2886751   0.0000000), wk =   0.0740741
        k(    2) = (   0.1666667  -0.4811252   0.0000000), wk =   0.0740741
        k(    3) = (   0.1666667  -0.0962250   0.0000000), wk =   0.0740741
        k(    4) = (  -0.5000000  -0.8660254   0.0000000), wk =   0.0370370
        k(    5) = (  -0.1666667   0.2886751   0.0000000), wk =   0.0740741
        k(    6) = (   0.3333333   0.0000000   0.0000000), wk =   0.0740741
        k(    7) = (  -0.1666667  -0.4811252   0.0000000), wk =   0.0740741
        k(    8) = (   0.5000000  -0.0962250   0.0000000), wk =   0.0740741
        k(    9) = (  -0.3333333  -0.3849002   0.0000000), wk =   0.0740741
        k(   10) = (   0.5000000   0.0962250   0.0000000), wk =   0.0740741
        k(   11) = (  -0.3333333   0.3849002   0.0000000), wk =   0.0740741
        k(   12) = (  -0.1666667  -0.0962250   0.0000000), wk =   0.0740741
        k(   13) = (  -0.0000000  -0.1924501   0.0000000), wk =   0.0740741
        k(   14) = (   0.5000000  -0.8660254   0.0000000), wk =   0.0370370
        k(   15) = (  -1.0000000   0.0000000   0.0000000), wk =   0.0370370

     Dense  grid:  1741401 G-vectors     FFT dimensions: ( 135, 135, 240)

     Smooth grid:   474235 G-vectors     FFT dimensions: (  90,  90, 160)

     Estimated max dynamical RAM per process >     218.62 MB

     Estimated total dynamical RAM >      10.25 GB
     Generating pointlists ...
     new r_m :   0.0595 (alat units)  1.1269 (a.u.) for type    1
     new r_m :   0.0595 (alat units)  1.1269 (a.u.) for type    2
     new r_m :   0.1167 (alat units)  2.2095 (a.u.) for type    3
     new r_m :   0.1167 (alat units)  2.2095 (a.u.) for type    4

     Initial potential from superposition of free atoms

     starting charge  155.99382, renormalised to  156.00000

     negative rho (up, down):  6.711E-03 4.655E-04
     Starting wfcs are  148 randomized atomic wfcs
     Checking if some PAW data can be deallocated... 

     total cpu time spent up to now is       20.3 secs

     Self-consistent Calculation

     iteration #  1     ecut=    48.00 Ry     beta= 0.50
     Davidson diagonalization with overlap
     ethr =  1.00E-02,  avg # of iterations =  2.8

     negative rho (up, down):  4.894E-03 2.908E-03

     total cpu time spent up to now is       60.2 secs

     total energy              =   -1130.72646400 Ry
     estimated scf accuracy    <      11.38761616 Ry

     total magnetization       =    12.00 Bohr mag/cell
     absolute magnetization    =    12.12 Bohr mag/cell

     iteration #  2     ecut=    48.00 Ry     beta= 0.50
     Davidson diagonalization with overlap
     ethr =  7.30E-03,  avg # of iterations =  2.8

     negative rho (up, down):  8.404E-03 7.450E-03

     total cpu time spent up to now is       97.4 secs

     total energy              =   -1133.00715018 Ry
     estimated scf accuracy    <       3.56735123 Ry

     total magnetization       =    10.00 Bohr mag/cell
     absolute magnetization    =    10.13 Bohr mag/cell

     iteration #  3     ecut=    48.00 Ry     beta= 0.50
     Davidson diagonalization with overlap
     ethr =  2.29E-03,  avg # of iterations =  6.8

     negative rho (up, down):  3.699E-03 3.621E-03

     total cpu time spent up to now is      134.7 secs

     total energy              =   -1133.57851508 Ry
     estimated scf accuracy    <       0.76323853 Ry

     total magnetization       =    12.00 Bohr mag/cell
     absolute magnetization    =    12.06 Bohr mag/cell

     iteration #  4     ecut=    48.00 Ry     beta= 0.50
     Davidson diagonalization with overlap
     ethr =  4.89E-04,  avg # of iterations =  6.6

     negative rho (up, down):  7.028E-03 7.846E-03

     total cpu time spent up to now is      171.0 secs

     total energy              =   -1133.77517662 Ry
     estimated scf accuracy    <       0.50614993 Ry

     total magnetization       =    10.00 Bohr mag/cell
     absolute magnetization    =    10.02 Bohr mag/cell

     iteration #  5     ecut=    48.00 Ry     beta= 0.50
     Davidson diagonalization with overlap
     ethr =  3.24E-04,  avg # of iterations =  6.7

     negative rho (up, down):  4.647E-03 4.705E-03

     total cpu time spent up to now is      208.5 secs

     total energy              =   -1133.81383102 Ry
     estimated scf accuracy    <       0.03798379 Ry

     total magnetization       =    10.00 Bohr mag/cell
     absolute magnetization    =    10.03 Bohr mag/cell

     iteration #  6     ecut=    48.00 Ry     beta= 0.50
     Davidson diagonalization with overlap
     ethr =  2.43E-05,  avg # of iterations = 11.4

     negative rho (up, down):  3.810E-03 3.948E-03

     total cpu time spent up to now is      255.7 secs

     total energy              =   -1133.82022090 Ry
     estimated scf accuracy    <       0.04455386 Ry

     total magnetization       =    10.00 Bohr mag/cell
     absolute magnetization    =    10.02 Bohr mag/cell

     iteration #  7     ecut=    48.00 Ry     beta= 0.50
     Davidson diagonalization with overlap
     ethr =  2.43E-05,  avg # of iterations =  6.7

     negative rho (up, down):  3.360E-03 3.810E-03

     total cpu time spent up to now is      292.0 secs

     total energy              =   -1133.82728684 Ry
     estimated scf accuracy    <       0.00137791 Ry

     total magnetization       =    10.00 Bohr mag/cell
     absolute magnetization    =    10.02 Bohr mag/cell

     iteration #  8     ecut=    48.00 Ry     beta= 0.50
     Davidson diagonalization with overlap
     ethr =  8.83E-07,  avg # of iterations =  7.6

     negative rho (up, down):  3.231E-03 3.745E-03

     total cpu time spent up to now is      335.0 secs

     total energy              =   -1133.82802257 Ry
     estimated scf accuracy    <       0.00030424 Ry

     total magnetization       =    10.00 Bohr mag/cell
     absolute magnetization    =    10.01 Bohr mag/cell

     iteration #  9     ecut=    48.00 Ry     beta= 0.50
     Davidson diagonalization with overlap
     ethr =  1.95E-07,  avg # of iterations =  3.2

     negative rho (up, down):  3.161E-03 3.739E-03

     total cpu time spent up to now is      366.6 secs

     total energy              =   -1133.82818370 Ry
     estimated scf accuracy    <       0.00007628 Ry

     total magnetization       =    10.00 Bohr mag/cell
     absolute magnetization    =    10.01 Bohr mag/cell

     iteration # 10     ecut=    48.00 Ry     beta= 0.50
     Davidson diagonalization with overlap
     ethr =  4.89E-08,  avg # of iterations =  4.9

     negative rho (up, down):  3.153E-03 3.751E-03

     total cpu time spent up to now is      406.5 secs

     total energy              =   -1133.82825289 Ry
     estimated scf accuracy    <       0.00003628 Ry

     total magnetization       =    10.00 Bohr mag/cell
     absolute magnetization    =    10.01 Bohr mag/cell

     iteration # 11     ecut=    48.00 Ry     beta= 0.50
     Davidson diagonalization with overlap
     ethr =  2.33E-08,  avg # of iterations =  3.5

     negative rho (up, down):  3.143E-03 3.766E-03

     total cpu time spent up to now is      437.7 secs

     total energy              =   -1133.82827871 Ry
     estimated scf accuracy    <       0.00000797 Ry

     total magnetization       =    10.00 Bohr mag/cell
     absolute magnetization    =    10.01 Bohr mag/cell

     iteration # 12     ecut=    48.00 Ry     beta= 0.50
     Davidson diagonalization with overlap
     ethr =  5.11E-09,  avg # of iterations =  4.6

     negative rho (up, down):  3.137E-03 3.779E-03

     total cpu time spent up to now is      471.2 secs

     total energy              =   -1133.82828717 Ry
     estimated scf accuracy    <       0.00000136 Ry

     total magnetization       =    10.00 Bohr mag/cell
     absolute magnetization    =    10.01 Bohr mag/cell

     iteration # 13     ecut=    48.00 Ry     beta= 0.50
     Davidson diagonalization with overlap
     ethr =  8.74E-10,  avg # of iterations =  4.8

     negative rho (up, down):  3.132E-03 3.784E-03

     total cpu time spent up to now is      505.5 secs

     total energy              =   -1133.82829018 Ry
     estimated scf accuracy    <       0.00000031 Ry

     total magnetization       =    10.00 Bohr mag/cell
     absolute magnetization    =    10.01 Bohr mag/cell

     iteration # 14     ecut=    48.00 Ry     beta= 0.50
     Davidson diagonalization with overlap
     ethr =  1.97E-10,  avg # of iterations =  4.7

     negative rho (up, down):  3.130E-03 3.785E-03
 
     Magnetic moment per site:
     atom:    1    charge:    0.8810    magn:    0.0007    constr:    0.0000
     atom:    2    charge:    0.8803    magn:    0.0002    constr:    0.0000
     atom:    3    charge:    0.8798    magn:    0.0004    constr:    0.0000
     atom:    4    charge:    0.8805    magn:    0.0001    constr:    0.0000
     atom:    5    charge:    0.8806    magn:    0.0004    constr:    0.0000
     atom:    6    charge:    0.8803    magn:    0.0001    constr:    0.0000
     atom:    7    charge:    2.8610    magn:    0.0002    constr:    0.0000
     atom:    8    charge:    2.8608    magn:    0.0018    constr:    0.0000
     atom:    9    charge:    2.8606    magn:    0.0046    constr:    0.0000
     atom:   10    charge:    2.8609    magn:    0.0008    constr:    0.0000
     atom:   11    charge:    2.8605    magn:    0.0079    constr:    0.0000
     atom:   12    charge:    2.8610    magn:    0.0003    constr:    0.0000
     atom:   13    charge:    2.8597    magn:    0.0052    constr:    0.0000
     atom:   14    charge:    2.8599    magn:    0.0002    constr:    0.0000
     atom:   15    charge:    2.8599    magn:    0.0000    constr:    0.0000
     atom:   16    charge:    0.8802    magn:    0.0004    constr:    0.0000
     atom:   17    charge:    0.8799    magn:    0.0002    constr:    0.0000
     atom:   18    charge:    0.8800    magn:    0.0001    constr:    0.0000
     atom:   19    charge:    0.8801    magn:    0.0005    constr:    0.0000
     atom:   20    charge:    0.8804    magn:    0.0007    constr:    0.0000
     atom:   21    charge:    0.8799    magn:    0.0004    constr:    0.0000
     atom:   22    charge:    2.8609    magn:    0.0052    constr:    0.0000
     atom:   23    charge:    0.8803    magn:    0.0002    constr:    0.0000
     atom:   24    charge:    0.8792    magn:    0.0003    constr:    0.0000
     atom:   25    charge:    0.8800    magn:    0.0003    constr:    0.0000
     atom:   26    charge:    2.8599    magn:    0.0003    constr:    0.0000
     atom:   27    charge:    2.8596    magn:    0.0018    constr:    0.0000
     atom:   28    charge:    2.8598    magn:    0.0002    constr:    0.0000
     atom:   29    charge:    2.8596    magn:    0.0002    constr:    0.0000
     atom:   30    charge:    2.8593    magn:    0.0046    constr:    0.0000
     atom:   31    charge:    2.8596    magn:    0.0008    constr:    0.0000
     atom:   32    charge:    0.8803    magn:    0.0003    constr:    0.0000
     atom:   33    charge:   12.5176    magn:    4.2374    constr:    0.0000
     atom:   34    charge:   12.5176    magn:    4.2375    constr:    0.0000

     total cpu time spent up to now is      544.1 secs

     End of self-consistent calculation

 ------ SPIN UP ------------


          k = 0.1667 0.2887 0.0000 ( 59267 PWs)   bands (ev):

   -72.8927 -72.8845 -44.4392 -44.3589 -44.2958 -44.2879 -44.2697 -44.2613
   -21.2468 -20.6621 -20.6540 -20.1099 -20.0905 -19.5892 -19.5805 -19.0991
   -18.6989 -18.6898 -18.4623 -18.4448 -18.1940 -18.0854 -18.0763 -17.8488
   -12.4847 -12.2098 -12.1977 -11.8216 -11.8163 -11.6577 -11.1928 -11.1879
   -10.3916 -10.3678 -10.1180 -10.1136  -9.5892  -9.5875  -8.8431  -8.8244
    -8.8196  -8.7679  -8.7588  -8.5958  -8.1965  -8.0514  -8.0184  -7.8305
    -7.8249  -7.4379  -7.4366  -7.2889  -7.2536  -7.2087  -7.2049  -6.9648
    -6.9496  -6.5646  -6.5408  -6.1536  -6.1519  -5.8718  -5.4178  -5.2939
    -5.2777  -5.1997  -4.9208  -4.8928  -4.5059  -4.3569  -4.3401  -3.9794
    -2.8717  -2.0499  -1.9767  -1.8494  -1.6651  -1.6066  -1.4992  -1.4843
    -1.4395  -1.3753  -1.3175  -0.7136   0.6537   0.9818   1.0535   1.1464
     1.2774   1.4639   1.4953   1.5875   1.6060   1.7720

          k = 0.1667-0.4811 0.0000 ( 59291 PWs)   bands (ev):

   -72.8927 -72.8845 -44.4392 -44.3589 -44.2958 -44.2880 -44.2697 -44.2613
   -21.1168 -20.9114 -20.7228 -20.1607 -19.8041 -19.4663 -19.3163 -19.1749
   -19.0136 -18.7791 -18.6413 -18.5426 -18.1486 -18.0878 -17.9218 -17.7230
   -12.3490 -12.1137 -12.0438 -11.9062 -11.6801 -11.6574 -11.5523 -10.9411
   -10.8905 -10.6243 -10.5222  -9.8601  -9.6932  -9.3356  -9.1105  -8.6702
    -8.6226  -8.5530  -8.3883  -8.3664  -8.1609  -8.1251  -8.0632  -8.0488
    -7.6883  -7.6228  -7.4941  -7.4731  -7.3577  -7.1707  -7.0668  -6.8616
    -6.6214  -6.3890  -6.1777  -6.1571  -5.9748  -5.9284  -5.7832  -5.7441
    -5.4508  -5.3989  -5.2109  -5.0403  -4.4447  -4.3465  -4.0901  -3.7669
    -2.8688  -2.0499  -1.9763  -1.8460  -1.6638  -1.6069  -1.5022  -1.4852
    -1.4406  -1.3749  -1.3173  -0.7174   0.5684   0.9713   1.0517   1.1183
     1.2044   1.2570   1.3574   1.8437   1.8995   2.1383

          k = 0.1667-0.0962 0.0000 ( 59226 PWs)   bands (ev):

   -72.8927 -72.8845 -44.4392 -44.3589 -44.2959 -44.2879 -44.2697 -44.2613
   -21.3132 -20.5361 -20.3451 -20.3386 -19.9872 -19.9814 -19.8048 -18.7280
   -18.7237 -18.3784 -18.3622 -18.3579 -18.2724 -18.2553 -18.0754 -18.0712
   -12.5103 -12.4998 -12.4074 -11.5806 -11.5768 -11.4310 -11.4147 -10.9258
   -10.9233  -9.9285  -9.9267  -9.6759  -9.3788  -9.3685  -9.2298  -9.2276
    -9.0414  -9.0399  -8.9245  -8.3228  -8.3213  -7.9031  -7.8968  -7.8833
    -7.8446  -7.7696  -7.6113  -7.5813  -7.1365  -7.0922  -6.9589  -6.8871
    -6.8852  -6.8507  -6.5298  -6.5283  -6.2568  -5.3509  -5.3186  -5.1427
    -5.0647  -4.8131  -4.7891  -4.7575  -4.6232  -4.5975  -4.3526  -4.3313
    -2.8745  -2.0500  -1.9771  -1.8527  -1.6675  -1.6063  -1.4967  -1.4834
    -1.4384  -1.3757  -1.3176  -0.7096   0.7487   0.9473   1.0168   1.1705
     1.2878   1.3274   1.5765   1.5871   1.6774   1.9160

          k =-0.5000-0.8660 0.0000 ( 59292 PWs)   bands (ev):

   -72.8927 -72.8845 -44.4392 -44.3589 -44.2959 -44.2880 -44.2696 -44.2613
   -21.0525 -21.0438 -20.4690 -20.4639 -19.4285 -19.4261 -19.4098 -19.4045
   -18.9940 -18.9859 -18.3292 -18.3252 -18.3176 -18.3018 -17.7916 -17.7888
   -12.0720 -12.0697 -12.0654 -12.0530 -11.8764 -11.8741 -11.3302 -11.3261
   -10.2342 -10.2333 -10.1355 -10.1306 -10.1289 -10.1256  -8.5905  -8.5517
    -8.5477  -8.5460  -8.5445  -8.5355  -7.8650  -7.8620  -7.8604  -7.8585
    -7.8212  -7.8185  -7.7818  -7.7535  -7.4923  -7.4825  -6.6098  -6.6087
    -6.3612  -6.3288  -6.3179  -6.2869  -6.1916  -6.1845  -5.7082  -5.7005
    -5.5473  -5.5387  -4.7265  -4.7176  -4.7061  -4.6862  -3.8860  -3.8688
    -2.8569  -2.0478  -1.9760  -1.8482  -1.6646  -1.6074  -1.5015  -1.4844
    -1.4473  -1.3793  -1.3181  -0.8373   0.7395   1.0614   1.0876   1.2101
     1.4545   1.5350   1.5693   1.6077   1.6276   1.7682

          k =-0.1667 0.2887 0.0000 ( 59267 PWs)   bands (ev):

   -72.8927 -72.8845 -44.4392 -44.3589 -44.2958 -44.2879 -44.2697 -44.2613
   -21.2468 -20.6622 -20.6539 -20.1099 -20.0905 -19.5892 -19.5804 -19.0991
   -18.6989 -18.6897 -18.4623 -18.4448 -18.1940 -18.0855 -18.0762 -17.8488
   -12.4847 -12.2098 -12.1977 -11.8216 -11.8163 -11.6577 -11.1928 -11.1878
   -10.3916 -10.3678 -10.1181 -10.1136  -9.5892  -9.5874  -8.8431  -8.8244
    -8.8195  -8.7680  -8.7588  -8.5958  -8.1965  -8.0514  -8.0184  -7.8305
    -7.8248  -7.4380  -7.4366  -7.2889  -7.2536  -7.2087  -7.2049  -6.9649
    -6.9497  -6.5645  -6.5408  -6.1536  -6.1518  -5.8717  -5.4179  -5.2939
    -5.2777  -5.1996  -4.9208  -4.8928  -4.5059  -4.3569  -4.3401  -3.9794
    -2.8717  -2.0499  -1.9767  -1.8494  -1.6651  -1.6066  -1.4992  -1.4843
    -1.4395  -1.3753  -1.3175  -0.7136   0.6537   0.9818   1.0535   1.1464
     1.2774   1.4638   1.4953   1.5874   1.6060   1.7719

          k = 0.3333 0.0000 0.0000 ( 59267 PWs)   bands (ev):

   -72.8927 -72.8845 -44.4392 -44.3589 -44.2959 -44.2879 -44.2697 -44.2613
   -21.2464 -20.6871 -20.6288 -20.1105 -20.0884 -19.6143 -19.5572 -19.1012
   -18.7153 -18.6680 -18.4654 -18.4435 -18.1899 -18.1081 -18.0601 -17.8479
   -12.4830 -12.2137 -12.1948 -11.8309 -11.8098 -11.6564 -11.2095 -11.1702
   -10.3918 -10.3664 -10.1329 -10.1004  -9.5955  -9.5797  -8.8434  -8.8276
    -8.8130  -8.7885  -8.7396  -8.5962  -8.1988  -8.1058  -7.9630  -7.8287
    -7.8242  -7.4454  -7.4293  -7.3014  -7.2351  -7.2175  -7.1953  -6.9675
    -6.9489  -6.6217  -6.4912  -6.1563  -6.1483  -5.8792  -5.4182  -5.3168
    -5.2425  -5.1998  -4.9303  -4.8860  -4.4975  -4.3897  -4.3207  -3.9779
    -2.8638  -2.0484  -1.9766  -1.8509  -1.6669  -1.6069  -1.4987  -1.4836
    -1.4430  -1.3783  -1.3179  -0.7970   0.7627   1.0646   1.2080   1.2467
     1.2626   1.4615   1.5131   1.5570   1.5945   1.7393

          k =-0.1667-0.4811 0.0000 ( 59291 PWs)   bands (ev):

   -72.8927 -72.8845 -44.4392 -44.3589 -44.2958 -44.2880 -44.2697 -44.2613
   -21.1168 -20.9114 -20.7228 -20.1607 -19.8041 -19.4662 -19.3163 -19.1749
   -19.0136 -18.7791 -18.6413 -18.5426 -18.1486 -18.0878 -17.9218 -17.7230
   -12.3490 -12.1137 -12.0438 -11.9061 -11.6801 -11.6574 -11.5524 -10.9411
   -10.8906 -10.6243 -10.5222  -9.8601  -9.6932  -9.3356  -9.1105  -8.6702
    -8.6225  -8.5531  -8.3883  -8.3664  -8.1609  -8.1251  -8.0632  -8.0489
    -7.6883  -7.6228  -7.4941  -7.4731  -7.3577  -7.1706  -7.0668  -6.8616
    -6.6214  -6.3890  -6.1777  -6.1571  -5.9748  -5.9283  -5.7832  -5.7440
    -5.4508  -5.3989  -5.2109  -5.0404  -4.4446  -4.3466  -4.0901  -3.7669
    -2.8688  -2.0499  -1.9763  -1.8460  -1.6638  -1.6069  -1.5022  -1.4852
    -1.4406  -1.3749  -1.3173  -0.7174   0.5684   0.9713   1.0517   1.1183
     1.2044   1.2570   1.3574   1.8438   1.8995   2.1381

          k = 0.5000-0.0962 0.0000 ( 59291 PWs)   bands (ev):

   -72.8927 -72.8845 -44.4391 -44.3589 -44.2958 -44.2879 -44.2697 -44.2613
   -21.1137 -20.9199 -20.7173 -20.1590 -19.8041 -19.4678 -19.3234 -19.1690
   -19.0149 -18.7793 -18.6307 -18.5494 -18.1369 -18.1048 -17.9180 -17.7228
   -12.3463 -12.1146 -12.0420 -11.9109 -11.6936 -11.6426 -11.5541 -10.9427
   -10.8870 -10.6215 -10.5254  -9.8582  -9.6934  -9.3364  -9.1100  -8.6589
    -8.6229  -8.5505  -8.4036  -8.3906  -8.1589  -8.1026  -8.0760  -8.0369
    -7.6840  -7.6234  -7.4931  -7.4745  -7.3515  -7.1715  -7.0681  -6.8599
    -6.6220  -6.3978  -6.1980  -6.1567  -5.9565  -5.9283  -5.7823  -5.7482
    -5.4518  -5.3990  -5.1850  -5.0564  -4.4205  -4.3790  -4.0847  -3.7665
    -2.8569  -2.0478  -1.9760  -1.8482  -1.6652  -1.6073  -1.5016  -1.4845
    -1.4472  -1.3793  -1.3181  -0.8371   0.7224   1.0483   1.1035   1.2138
     1.2879   1.3580   1.4963   1.7590   1.8414   1.8720

          k =-0.3333-0.3849 0.0000 ( 59291 PWs)   bands (ev):

   -72.8927 -72.8845 -44.4391 -44.3589 -44.2958 -44.2880 -44.2697 -44.2613
   -21.1148 -20.9169 -20.7194 -20.1588 -19.8060 -19.4661 -19.3180 -19.1724
   -19.0183 -18.7771 -18.6321 -18.5489 -18.1391 -18.1020 -17.9182 -17.7230
   -12.3482 -12.1112 -12.0451 -11.9084 -11.6817 -11.6560 -11.5536 -10.9423
   -10.8877 -10.6211 -10.5255  -9.8581  -9.6934  -9.3369  -9.1112  -8.6621
    -8.6219  -8.5524  -8.3903  -8.3882  -8.1603  -8.1113  -8.0633  -8.0514
    -7.6846  -7.6217  -7.4997  -7.4680  -7.3497  -7.1715  -7.0687  -6.8689
    -6.6202  -6.3901  -6.1800  -6.1590  -5.9692  -5.9266  -5.7824  -5.7590
    -5.4518  -5.3919  -5.1864  -5.0575  -4.4231  -4.3758  -4.0843  -3.7668
    -2.8609  -2.0486  -1.9761  -1.8475  -1.6643  -1.6072  -1.5018  -1.4847
    -1.4453  -1.3778  -1.3179  -0.8005   0.6718   1.0366   1.1126   1.2077
     1.2269   1.3221   1.3757   1.8231   1.8932   1.9262

          k = 0.5000 0.0962 0.0000 ( 59291 PWs)   bands (ev):

   -72.8927 -72.8845 -44.4391 -44.3589 -44.2958 -44.2879 -44.2697 -44.2613
   -21.1137 -20.9199 -20.7173 -20.1590 -19.8041 -19.4678 -19.3234 -19.1690
   -19.0149 -18.7793 -18.6307 -18.5494 -18.1369 -18.1048 -17.9180 -17.7228
   -12.3463 -12.1147 -12.0420 -11.9110 -11.6936 -11.6426 -11.5541 -10.9426
   -10.8870 -10.6215 -10.5254  -9.8582  -9.6935  -9.3364  -9.1099  -8.6589
    -8.6229  -8.5505  -8.4036  -8.3906  -8.1589  -8.1026  -8.0760  -8.0368
    -7.6841  -7.6234  -7.4931  -7.4746  -7.3515  -7.1715  -7.0680  -6.8599
    -6.6219  -6.3978  -6.1980  -6.1566  -5.9565  -5.9282  -5.7824  -5.7482
    -5.4518  -5.3990  -5.1850  -5.0564  -4.4205  -4.3790  -4.0848  -3.7665
    -2.8569  -2.0478  -1.9760  -1.8482  -1.6652  -1.6073  -1.5016  -1.4845
    -1.4472  -1.3793  -1.3181  -0.8371   0.7224   1.0483   1.1035   1.2138
     1.2879   1.3579   1.4963   1.7590   1.8414   1.8720

          k =-0.3333 0.3849 0.0000 ( 59291 PWs)   bands (ev):

   -72.8927 -72.8845 -44.4391 -44.3589 -44.2958 -44.2880 -44.2697 -44.2613
   -21.1148 -20.9169 -20.7194 -20.1588 -19.8060 -19.4661 -19.3180 -19.1724
   -19.0183 -18.7771 -18.6321 -18.5489 -18.1390 -18.1020 -17.9182 -17.7230
   -12.3482 -12.1112 -12.0451 -11.9084 -11.6818 -11.6560 -11.5536 -10.9423
   -10.8877 -10.6210 -10.5255  -9.8581  -9.6934  -9.3368  -9.1113  -8.6621
    -8.6219  -8.5524  -8.3903  -8.3882  -8.1603  -8.1113  -8.0633  -8.0513
    -7.6845  -7.6217  -7.4997  -7.4680  -7.3498  -7.1715  -7.0687  -6.8689
    -6.6203  -6.3901  -6.1800  -6.1591  -5.9692  -5.9267  -5.7823  -5.7590
    -5.4517  -5.3919  -5.1864  -5.0575  -4.4231  -4.3758  -4.0843  -3.7668
    -2.8609  -2.0486  -1.9761  -1.8475  -1.6643  -1.6072  -1.5018  -1.4847
    -1.4453  -1.3778  -1.3179  -0.8005   0.6718   1.0366   1.1126   1.2077
     1.2269   1.3221   1.3757   1.8230   1.8932   1.9262

          k =-0.1667-0.0962 0.0000 ( 59226 PWs)   bands (ev):

   -72.8927 -72.8845 -44.4392 -44.3589 -44.2959 -44.2879 -44.2697 -44.2613
   -21.3132 -20.5361 -20.3451 -20.3386 -19.9872 -19.9814 -19.8048 -18.7280
   -18.7237 -18.3784 -18.3623 -18.3579 -18.2724 -18.2553 -18.0754 -18.0712
   -12.5103 -12.4998 -12.4074 -11.5806 -11.5768 -11.4310 -11.4147 -10.9258
   -10.9233  -9.9285  -9.9268  -9.6759  -9.3788  -9.3685  -9.2299  -9.2276
    -9.0414  -9.0399  -8.9245  -8.3228  -8.3214  -7.9031  -7.8968  -7.8833
    -7.8446  -7.7697  -7.6113  -7.5813  -7.1365  -7.0922  -6.9590  -6.8871
    -6.8852  -6.8507  -6.5298  -6.5283  -6.2568  -5.3509  -5.3186  -5.1426
    -5.0648  -4.8131  -4.7890  -4.7576  -4.6232  -4.5975  -4.3526  -4.3313
    -2.8745  -2.0500  -1.9771  -1.8527  -1.6675  -1.6063  -1.4967  -1.4834
    -1.4384  -1.3757  -1.3176  -0.7096   0.7487   0.9473   1.0168   1.1705
     1.2878   1.3274   1.5765   1.5871   1.6774   1.9159

          k =-0.0000-0.1925 0.0000 ( 59226 PWs)   bands (ev):

   -72.8927 -72.8845 -44.4391 -44.3588 -44.2959 -44.2879 -44.2697 -44.2613
   -21.3134 -20.5305 -20.3592 -20.3341 -19.9896 -19.9708 -19.8090 -18.7343
   -18.7129 -18.4070 -18.3604 -18.3503 -18.2539 -18.2532 -18.0857 -18.0668
   -12.5145 -12.4965 -12.4066 -11.5864 -11.5710 -11.4316 -11.4126 -10.9280
   -10.9226  -9.9328  -9.9233  -9.6756  -9.3770  -9.3675  -9.2318  -9.2273
    -9.0412  -9.0408  -8.9251  -8.3253  -8.3184  -7.9030  -7.8964  -7.8630
    -7.8422  -7.7716  -7.6407  -7.5893  -7.1153  -7.0837  -6.9574  -6.8915
    -6.8825  -6.8644  -6.5334  -6.5236  -6.2576  -5.3476  -5.3108  -5.1428
    -5.0645  -4.8596  -4.7905  -4.7482  -4.5933  -4.5883  -4.3633  -4.3316
    -2.8784  -2.0508  -1.9772  -1.8520  -1.6667  -1.6061  -1.4969  -1.4839
    -1.4369  -1.3742  -1.3173  -0.6611   0.6764   0.8605   1.0104   1.1451
     1.2194   1.3997   1.5552   1.5874   1.7077   1.9571

          k = 0.5000-0.8660 0.0000 ( 59292 PWs)   bands (ev):

   -72.8927 -72.8845 -44.4392 -44.3589 -44.2959 -44.2880 -44.2696 -44.2613
   -21.0526 -21.0437 -20.4690 -20.4639 -19.4285 -19.4261 -19.4098 -19.4045
   -18.9941 -18.9858 -18.3293 -18.3252 -18.3176 -18.3017 -17.7916 -17.7888
   -12.0720 -12.0697 -12.0655 -12.0529 -11.8764 -11.8741 -11.3303 -11.3260
   -10.2342 -10.2334 -10.1355 -10.1306 -10.1289 -10.1256  -8.5905  -8.5518
    -8.5477  -8.5461  -8.5445  -8.5353  -7.8649  -7.8620  -7.8604  -7.8585
    -7.8213  -7.8185  -7.7818  -7.7535  -7.4924  -7.4826  -6.6097  -6.6086
    -6.3612  -6.3288  -6.3179  -6.2869  -6.1917  -6.1843  -5.7083  -5.7006
    -5.5475  -5.5388  -4.7265  -4.7176  -4.7061  -4.6862  -3.8860  -3.8688
    -2.8569  -2.0478  -1.9760  -1.8482  -1.6646  -1.6074  -1.5015  -1.4844
    -1.4473  -1.3793  -1.3181  -0.8373   0.7394   1.0614   1.0876   1.2101
     1.4545   1.5350   1.5692   1.6076   1.6276   1.7690

          k =-1.0000 0.0000 0.0000 ( 59292 PWs)   bands (ev):

   -72.8927 -72.8845 -44.4392 -44.3589 -44.2959 -44.2880 -44.2697 -44.2613
   -21.0759 -21.0173 -20.4807 -20.4572 -19.4446 -19.4077 -19.4070 -19.4027
   -19.0154 -18.9676 -18.3804 -18.3141 -18.3025 -18.2765 -17.8011 -17.7817
   -12.1156 -12.0675 -12.0439 -12.0303 -11.8845 -11.8657 -11.3500 -11.3069
   -10.2535 -10.2321 -10.1331 -10.1299 -10.1236 -10.1191  -8.6351  -8.5795
    -8.5498  -8.5316  -8.5134  -8.4889  -7.8822  -7.8723  -7.8608  -7.8500
    -7.8157  -7.8111  -7.7960  -7.7552  -7.5144  -7.4633  -6.6143  -6.6005
    -6.3769  -6.3214  -6.2948  -6.2791  -6.2087  -6.1700  -5.7473  -5.6707
    -5.5669  -5.5198  -4.8159  -4.7231  -4.6627  -4.6369  -3.8950  -3.8631
    -2.8727  -2.0505  -1.9765  -1.8453  -1.6636  -1.6068  -1.5022  -1.4853
    -1.4379  -1.3735  -1.3169  -0.6695   0.5276   0.8532   1.0468   1.0943
     1.2231   1.4325   1.5742   1.6205   1.6387   1.9326

 ------ SPIN DOWN ----------


          k = 0.1667 0.2887 0.0000 ( 59267 PWs)   bands (ev):

   -68.6946 -68.6852 -40.3665 -40.2716 -40.1200 -40.1106 -40.0683 -40.0582
   -21.2427 -20.6592 -20.6488 -20.1054 -20.0868 -19.5865 -19.5751 -19.0949
   -18.6955 -18.6839 -18.4579 -18.4408 -18.1892 -18.0821 -18.0718 -17.8445
   -12.4816 -12.2066 -12.1951 -11.8191 -11.8137 -11.6554 -11.1905 -11.1842
   -10.3885 -10.3647 -10.1157 -10.1098  -9.5867  -9.5843  -8.8290  -8.8163
    -8.8141  -8.7661  -8.7555  -8.5932  -8.1940  -8.0254  -8.0084  -7.8279
    -7.8224  -7.4350  -7.4327  -7.2686  -7.2392  -7.2067  -7.2018  -6.9621
    -6.9473  -6.5416  -6.5325  -6.1509  -6.1491  -5.8551  -5.4147  -5.2741
    -5.2614  -5.1968  -4.9051  -4.8799  -4.4891  -4.3422  -4.3287  -3.9650
    -1.4393   0.3862   0.9192   1.0467   1.0843   1.1836   1.2396   1.3395
     1.3769   1.4949   1.5097   1.5729   1.6406   1.6990   1.8580   2.0147
     2.0363   2.1162   2.1372   2.1915   2.2480   2.3019

          k = 0.1667-0.4811 0.0000 ( 59291 PWs)   bands (ev):

   -68.6946 -68.6852 -40.3666 -40.2716 -40.1200 -40.1106 -40.0683 -40.0582
   -21.1123 -20.9081 -20.7186 -20.1565 -19.8001 -19.4622 -19.3124 -19.1704
   -19.0096 -18.7750 -18.6356 -18.5394 -18.1428 -18.0854 -17.9172 -17.7186
   -12.3458 -12.1107 -12.0414 -11.9035 -11.6783 -11.6543 -11.5496 -10.9383
   -10.8871 -10.6207 -10.5197  -9.8567  -9.6903  -9.3324  -9.1078  -8.6452
    -8.6199  -8.5497  -8.3859  -8.3542  -8.1583  -8.1066  -8.0610  -8.0460
    -7.6854  -7.6202  -7.4915  -7.4706  -7.3389  -7.1673  -7.0644  -6.8448
    -6.6181  -6.3731  -6.1608  -6.1544  -5.9580  -5.9251  -5.7803  -5.7288
    -5.4481  -5.3834  -5.1878  -5.0308  -4.4241  -4.3394  -4.0753  -3.7530
    -1.4301   0.3750   0.8927   0.9962   1.0747   1.1410   1.1744   1.2363
     1.2908   1.4564   1.5204   1.7426   1.7658   1.8026   1.8864   2.0870
     2.1179   2.1366   2.1709   2.2025   2.2742   2.2970

          k = 0.1667-0.0962 0.0000 ( 59226 PWs)   bands (ev):

   -68.6946 -68.6852 -40.3665 -40.2716 -40.1200 -40.1105 -40.0683 -40.0582
   -21.3091 -20.5315 -20.3412 -20.3351 -19.9824 -19.9776 -19.8013 -18.7231
   -18.7194 -18.3738 -18.3585 -18.3536 -18.2678 -18.2506 -18.0712 -18.0677
   -12.5072 -12.4971 -12.4047 -11.5777 -11.5744 -11.4279 -11.4123 -10.9226
   -10.9207  -9.9255  -9.9240  -9.6726  -9.3757  -9.3657  -9.2264  -9.2246
    -9.0387  -9.0372  -8.9049  -8.3192  -8.3182  -7.8998  -7.8943  -7.8601
    -7.8405  -7.7672  -7.5932  -7.5709  -7.1097  -7.0811  -6.9562  -6.8844
    -6.8829  -6.8397  -6.5270  -6.5259  -6.2542  -5.3267  -5.3060  -5.1398
    -5.0618  -4.7963  -4.7735  -4.7423  -4.6076  -4.5844  -4.3355  -4.3218
    -1.4485   0.4000   0.9427   1.0161   1.0633   1.1122   1.1949   1.3408
     1.4180   1.5154   1.5868   1.6373   1.7459   1.8424   1.8897   1.9248
     2.0211   2.0424   2.1183   2.1793   2.2189   2.3004

          k =-0.5000-0.8660 0.0000 ( 59292 PWs)   bands (ev):

   -68.6946 -68.6852 -40.3666 -40.2716 -40.1200 -40.1106 -40.0683 -40.0582
   -21.0497 -21.0383 -20.4649 -20.4602 -19.4239 -19.4214 -19.4054 -19.4012
   -18.9916 -18.9803 -18.3251 -18.3201 -18.3165 -18.2947 -17.7871 -17.7848
   -12.0694 -12.0661 -12.0640 -12.0490 -11.8738 -11.8719 -11.3280 -11.3223
   -10.2312 -10.2305 -10.1319 -10.1279 -10.1256 -10.1230  -8.5607  -8.5468
    -8.5448  -8.5414  -8.5389  -8.5316  -7.8618  -7.8590  -7.8579  -7.8559
    -7.8171  -7.8151  -7.7637  -7.7423  -7.4908  -7.4793  -6.6064  -6.6063
    -6.3318  -6.3102  -6.3026  -6.2778  -6.1893  -6.1807  -5.6940  -5.6861
    -5.5456  -5.5350  -4.7088  -4.7029  -4.6833  -4.6806  -3.8689  -3.8585
    -1.4063   0.1391   0.9562   0.9881   1.0484   1.1978   1.2306   1.3599
     1.4683   1.5173   1.5845   1.7048   1.7474   1.8720   1.9177   1.9242
     1.9869   2.0706   2.1955   2.2363   2.2893   2.3295

          k =-0.1667 0.2887 0.0000 ( 59267 PWs)   bands (ev):

   -68.6946 -68.6852 -40.3665 -40.2716 -40.1200 -40.1106 -40.0683 -40.0582
   -21.2427 -20.6592 -20.6488 -20.1054 -20.0867 -19.5865 -19.5751 -19.0949
   -18.6956 -18.6839 -18.4579 -18.4408 -18.1892 -18.0822 -18.0717 -17.8445
   -12.4816 -12.2066 -12.1951 -11.8191 -11.8137 -11.6554 -11.1906 -11.1841
   -10.3886 -10.3647 -10.1158 -10.1098  -9.5867  -9.5842  -8.8290  -8.8162
    -8.8141  -8.7662  -8.7555  -8.5932  -8.1941  -8.0254  -8.0084  -7.8278
    -7.8223  -7.4350  -7.4328  -7.2686  -7.2392  -7.2067  -7.2018  -6.9621
    -6.9473  -6.5416  -6.5325  -6.1510  -6.1490  -5.8551  -5.4148  -5.2742
    -5.2614  -5.1967  -4.9051  -4.8798  -4.4891  -4.3422  -4.3287  -3.9650
    -1.4393   0.3862   0.9192   1.0467   1.0843   1.1836   1.2396   1.3395
     1.3768   1.4949   1.5097   1.5729   1.6407   1.6990   1.8580   2.0147
     2.0361   2.1156   2.1371   2.1914   2.2478   2.3019

          k = 0.3333 0.0000 0.0000 ( 59267 PWs)   bands (ev):

   -68.6946 -68.6852 -40.3665 -40.2716 -40.1200 -40.1105 -40.0683 -40.0582
   -21.2423 -20.6810 -20.6268 -20.1059 -20.0850 -19.6081 -19.5551 -19.0967
   -18.7089 -18.6662 -18.4607 -18.4396 -18.1859 -18.1011 -18.0580 -17.8438
   -12.4804 -12.2096 -12.1928 -11.8275 -11.8077 -11.6541 -11.2056 -11.1685
   -10.3884 -10.3637 -10.1280 -10.0988  -9.5920  -9.5777  -8.8291  -8.8208
    -8.8072  -8.7845  -8.7384  -8.5936  -8.1958  -8.0744  -7.9590  -7.8261
    -7.8219  -7.4408  -7.4270  -7.2772  -7.2263  -7.2143  -7.1936  -6.9643
    -6.9467  -6.5927  -6.4867  -6.1533  -6.1460  -5.8602  -5.4148  -5.2934
    -5.2335  -5.1970  -4.9127  -4.8745  -4.4826  -4.3690  -4.3113  -3.9642
    -1.4241   0.2193   0.9535   1.0523   1.0864   1.1506   1.2156   1.3849
     1.4801   1.5092   1.5401   1.6127   1.7705   1.8575   1.8953   1.9238
     2.0327   2.0523   2.1403   2.1876   2.2536   2.3906

          k =-0.1667-0.4811 0.0000 ( 59291 PWs)   bands (ev):

   -68.6946 -68.6852 -40.3666 -40.2716 -40.1200 -40.1106 -40.0683 -40.0582
   -21.1123 -20.9081 -20.7186 -20.1565 -19.8001 -19.4622 -19.3123 -19.1704
   -19.0096 -18.7750 -18.6356 -18.5393 -18.1428 -18.0854 -17.9172 -17.7186
   -12.3459 -12.1107 -12.0414 -11.9035 -11.6783 -11.6543 -11.5496 -10.9383
   -10.8872 -10.6207 -10.5196  -9.8566  -9.6903  -9.3325  -9.1078  -8.6452
    -8.6198  -8.5497  -8.3859  -8.3542  -8.1582  -8.1066  -8.0610  -8.0461
    -7.6854  -7.6202  -7.4914  -7.4706  -7.3388  -7.1673  -7.0644  -6.8448
    -6.6181  -6.3731  -6.1608  -6.1545  -5.9580  -5.9251  -5.7803  -5.7288
    -5.4481  -5.3834  -5.1878  -5.0308  -4.4241  -4.3394  -4.0753  -3.7530
    -1.4301   0.3750   0.8927   0.9962   1.0747   1.1410   1.1744   1.2363
     1.2908   1.4564   1.5204   1.7427   1.7658   1.8026   1.8863   2.0870
     2.1178   2.1366   2.1709   2.2025   2.2746   2.2967

          k = 0.5000-0.0962 0.0000 ( 59291 PWs)   bands (ev):

   -68.6946 -68.6852 -40.3665 -40.2716 -40.1200 -40.1105 -40.0683 -40.0582
   -21.1097 -20.9152 -20.7139 -20.1550 -19.8001 -19.4634 -19.3184 -19.1655
   -19.0106 -18.7751 -18.6270 -18.5450 -18.1332 -18.0993 -17.9142 -17.7184
   -12.3438 -12.1115 -12.0396 -11.9077 -11.6901 -11.6411 -11.5513 -10.9395
   -10.8842 -10.6185 -10.5223  -9.8550  -9.6907  -9.3332  -9.1073  -8.6375
    -8.6199  -8.5476  -8.3911  -8.3773  -8.1564  -8.0910  -8.0724  -8.0354
    -7.6817  -7.6207  -7.4906  -7.4719  -7.3344  -7.1682  -7.0653  -6.8438
    -6.6185  -6.3785  -6.1756  -6.1541  -5.9457  -5.9249  -5.7796  -5.7313
    -5.4490  -5.3836  -5.1695  -5.0422  -4.4054  -4.3635  -4.0716  -3.7529
    -1.4064   0.1409   0.9422   0.9804   1.0558   1.1535   1.2129   1.2372
     1.3313   1.5988   1.7106   1.7352   1.8217   1.9010   1.9558   1.9893
     2.0569   2.1455   2.2087   2.2581   2.2732   2.3161

          k =-0.3333-0.3849 0.0000 ( 59291 PWs)   bands (ev):

   -68.6946 -68.6852 -40.3665 -40.2716 -40.1200 -40.1106 -40.0683 -40.0582
   -21.1106 -20.9127 -20.7156 -20.1548 -19.8017 -19.4620 -19.3139 -19.1684
   -19.0136 -18.7732 -18.6281 -18.5446 -18.1348 -18.0971 -17.9143 -17.7186
   -12.3452 -12.1086 -12.0423 -11.9057 -11.6796 -11.6530 -11.5507 -10.9391
   -10.8847 -10.6180 -10.5225  -9.8550  -9.6907  -9.3335  -9.1083  -8.6395
    -8.6192  -8.5492  -8.3873  -8.3696  -8.1577  -8.0970  -8.0612  -8.0481
    -7.6822  -7.6192  -7.4965  -7.4662  -7.3334  -7.1683  -7.0659  -6.8498
    -6.6169  -6.3735  -6.1631  -6.1557  -5.9542  -5.9236  -5.7797  -5.7392
    -5.4490  -5.3788  -5.1706  -5.0425  -4.4078  -4.3608  -4.0713  -3.7531
    -1.4145   0.2068   0.9286   0.9792   1.0496   1.1761   1.2209   1.2493
     1.2931   1.5068   1.6863   1.7563   1.8314   1.8683   1.9563   2.0197
     2.0607   2.0998   2.1489   2.2297   2.2738   2.3205

          k = 0.5000 0.0962 0.0000 ( 59291 PWs)   bands (ev):

   -68.6946 -68.6852 -40.3665 -40.2716 -40.1200 -40.1105 -40.0683 -40.0582
   -21.1097 -20.9152 -20.7139 -20.1550 -19.8001 -19.4634 -19.3184 -19.1655
   -19.0106 -18.7750 -18.6270 -18.5450 -18.1332 -18.0993 -17.9142 -17.7184
   -12.3438 -12.1115 -12.0396 -11.9077 -11.6901 -11.6411 -11.5513 -10.9394
   -10.8842 -10.6185 -10.5223  -9.8550  -9.6907  -9.3332  -9.1073  -8.6375
    -8.6199  -8.5477  -8.3910  -8.3773  -8.1564  -8.0910  -8.0724  -8.0353
    -7.6817  -7.6207  -7.4906  -7.4720  -7.3344  -7.1683  -7.0653  -6.8438
    -6.6185  -6.3785  -6.1756  -6.1540  -5.9457  -5.9248  -5.7797  -5.7313
    -5.4491  -5.3836  -5.1695  -5.0422  -4.4054  -4.3635  -4.0716  -3.7529
    -1.4064   0.1409   0.9422   0.9804   1.0558   1.1535   1.2129   1.2372
     1.3313   1.5988   1.7106   1.7351   1.8217   1.9009   1.9558   1.9893
     2.0569   2.1455   2.2088   2.2580   2.2732   2.3163

          k =-0.3333 0.3849 0.0000 ( 59291 PWs)   bands (ev):

   -68.6946 -68.6852 -40.3665 -40.2716 -40.1200 -40.1106 -40.0683 -40.0582
   -21.1106 -20.9127 -20.7156 -20.1548 -19.8017 -19.4621 -19.3139 -19.1684
   -19.0136 -18.7732 -18.6280 -18.5446 -18.1348 -18.0971 -17.9143 -17.7186
   -12.3452 -12.1086 -12.0423 -11.9057 -11.6796 -11.6530 -11.5507 -10.9391
   -10.8847 -10.6180 -10.5225  -9.8550  -9.6906  -9.3335  -9.1083  -8.6395
    -8.6192  -8.5491  -8.3873  -8.3696  -8.1578  -8.0970  -8.0612  -8.0480
    -7.6821  -7.6192  -7.4965  -7.4662  -7.3334  -7.1682  -7.0659  -6.8498
    -6.6169  -6.3735  -6.1631  -6.1558  -5.9542  -5.9237  -5.7796  -5.7392
    -5.4489  -5.3788  -5.1706  -5.0425  -4.4078  -4.3608  -4.0713  -3.7531
    -1.4145   0.2068   0.9286   0.9792   1.0496   1.1761   1.2209   1.2493
     1.2931   1.5068   1.6863   1.7563   1.8314   1.8683   1.9564   2.0197
     2.0607   2.0997   2.1490   2.2298   2.2738   2.3203

          k =-0.1667-0.0962 0.0000 ( 59226 PWs)   bands (ev):

   -68.6946 -68.6852 -40.3665 -40.2716 -40.1200 -40.1105 -40.0683 -40.0582
   -21.3091 -20.5315 -20.3412 -20.3351 -19.9824 -19.9776 -19.8012 -18.7231
   -18.7194 -18.3739 -18.3585 -18.3536 -18.2678 -18.2506 -18.0712 -18.0677
   -12.5072 -12.4971 -12.4046 -11.5777 -11.5744 -11.4279 -11.4123 -10.9226
   -10.9207  -9.9255  -9.9240  -9.6726  -9.3757  -9.3657  -9.2264  -9.2247
    -9.0386  -9.0372  -8.9049  -8.3193  -8.3182  -7.8998  -7.8942  -7.8601
    -7.8405  -7.7673  -7.5932  -7.5709  -7.1097  -7.0811  -6.9563  -6.8844
    -6.8828  -6.8397  -6.5269  -6.5258  -6.2543  -5.3267  -5.3060  -5.1397
    -5.0619  -4.7963  -4.7735  -4.7423  -4.6076  -4.5843  -4.3355  -4.3218
    -1.4485   0.4000   0.9427   1.0161   1.0633   1.1122   1.1949   1.3408
     1.4180   1.5154   1.5869   1.6373   1.7460   1.8424   1.8897   1.9248
     2.0211   2.0424   2.1191   2.1791   2.2189   2.3001

          k =-0.0000-0.1925 0.0000 ( 59226 PWs)   bands (ev):

   -68.6946 -68.6852 -40.3665 -40.2716 -40.1200 -40.1105 -40.0683 -40.0582
   -21.3093 -20.5267 -20.3543 -20.3301 -19.9856 -19.9675 -19.8048 -18.7296
   -18.7091 -18.3994 -18.3562 -18.3462 -18.2513 -18.2501 -18.0811 -18.0626
   -12.5104 -12.4946 -12.4040 -11.5837 -11.5688 -11.4279 -11.4107 -10.9250
   -10.9198  -9.9296  -9.9204  -9.6725  -9.3743  -9.3649  -9.2283  -9.2240
    -9.0383  -9.0381  -8.9054  -8.3219  -8.3151  -7.9003  -7.8940  -7.8477
    -7.8362  -7.7689  -7.6157  -7.5742  -7.0997  -7.0705  -6.9549  -6.8887
    -6.8800  -6.8495  -6.5307  -6.5212  -6.2548  -5.3288  -5.2960  -5.1398
    -5.0617  -4.8330  -4.7725  -4.7340  -4.5870  -4.5777  -4.3470  -4.3179
    -1.4556   0.5241   0.9173   1.0161   1.0365   1.1437   1.1946   1.2851
     1.3687   1.4949   1.5215   1.5683   1.7530   1.8274   1.8514   1.9877
     2.0272   2.0583   2.0962   2.1625   2.2271   2.2707

          k = 0.5000-0.8660 0.0000 ( 59292 PWs)   bands (ev):

   -68.6946 -68.6852 -40.3666 -40.2716 -40.1200 -40.1106 -40.0683 -40.0582
   -21.0497 -21.0382 -20.4649 -20.4602 -19.4239 -19.4214 -19.4054 -19.4012
   -18.9916 -18.9802 -18.3252 -18.3201 -18.3166 -18.2946 -17.7871 -17.7848
   -12.0694 -12.0661 -12.0641 -12.0489 -11.8738 -11.8719 -11.3281 -11.3222
   -10.2312 -10.2305 -10.1319 -10.1279 -10.1256 -10.1230  -8.5607  -8.5468
    -8.5448  -8.5413  -8.5389  -8.5314  -7.8618  -7.8591  -7.8579  -7.8559
    -7.8172  -7.8151  -7.7637  -7.7423  -7.4908  -7.4793  -6.6064  -6.6062
    -6.3318  -6.3102  -6.3026  -6.2778  -6.1894  -6.1806  -5.6941  -5.6861
    -5.5457  -5.5350  -4.7088  -4.7028  -4.6833  -4.6805  -3.8690  -3.8585
    -1.4063   0.1391   0.9562   0.9881   1.0484   1.1978   1.2306   1.3599
     1.4683   1.5173   1.5845   1.7048   1.7475   1.8720   1.9177   1.9242
     1.9869   2.0707   2.1954   2.2362   2.2893   2.3286

          k =-1.0000 0.0000 0.0000 ( 59292 PWs)   bands (ev):

   -68.6946 -68.6852 -40.3666 -40.2716 -40.1200 -40.1106 -40.0683 -40.0581
   -21.0699 -21.0154 -20.4760 -20.4534 -19.4395 -19.4038 -19.4034 -19.3993
   -19.0089 -18.9656 -18.3716 -18.3086 -18.3002 -18.2760 -17.7964 -17.7774
   -12.1088 -12.0651 -12.0425 -12.0295 -11.8819 -11.8638 -11.3458 -11.3053
   -10.2485 -10.2284 -10.1304 -10.1274 -10.1208 -10.1168  -8.6023  -8.5750
    -8.5468  -8.5295  -8.5127  -8.4850  -7.8779  -7.8688  -7.8576  -7.8474
    -7.8090  -7.8089  -7.7779  -7.7409  -7.5104  -7.4621  -6.6115  -6.5982
    -6.3510  -6.3003  -6.2843  -6.2711  -6.2043  -6.1680  -5.7240  -5.6620
    -5.5625  -5.5186  -4.7854  -4.6996  -4.6573  -4.6356  -3.8796  -3.8499
    -1.4375   0.4922   0.8799   1.0292   1.0647   1.1763   1.2250   1.2722
     1.2747   1.3187   1.6080   1.6360   1.6791   1.7669   1.7771   1.8922
     2.0973   2.1462   2.1498   2.2108   2.2898   2.3222

     the Fermi energy is    -1.1383 ev

!    total energy              =   -1133.82829109 Ry

     total all-electron energy =     -6753.503994 Ry
     estimated scf accuracy    <       0.00000006 Ry
     smearing contrib. (-TS)   =      -0.00000000 Ry
     internal energy E=F+TS    =   -1133.82829109 Ry

     The total energy is F=E-TS. E is the sum of the following terms:
     one-electron contribution =   -3952.97785523 Ry
     hartree contribution      =    2004.67321622 Ry
     xc contribution           =    -186.02172476 Ry
     ewald contribution        =    1359.87449829 Ry
     DFT-D3 Dispersion         =      -0.13367313 Ry
     one-center paw contrib.   =    -359.24275249 Ry

     total magnetization       =    10.00 Bohr mag/cell
     absolute magnetization    =    10.01 Bohr mag/cell

     convergence has been achieved in  14 iterations

     Writing output data file ./mytmp/Crdimer0.1415-0.3.save/
 
     init_run     :     18.74s CPU     19.98s WALL (       1 calls)
     electrons    :    491.58s CPU    523.99s WALL (       1 calls)

     Called by init_run:
     wfcinit      :     13.93s CPU     14.71s WALL (       1 calls)
     potinit      :      1.53s CPU      1.60s WALL (       1 calls)
     hinit0       :      1.57s CPU      1.70s WALL (       1 calls)

     Called by electrons:
     c_bands      :    394.53s CPU    418.52s WALL (      14 calls)
     sum_band     :     74.94s CPU     80.17s WALL (      14 calls)
     v_of_rho     :      4.59s CPU      4.93s WALL (      15 calls)
     newd         :      9.51s CPU     12.42s WALL (      15 calls)
     PAW_pot      :      7.35s CPU      7.42s WALL (      15 calls)
     mix_rho      :      0.99s CPU      1.00s WALL (      14 calls)

     Called by c_bands:
     init_us_2    :      5.01s CPU      5.04s WALL (     870 calls)
     cegterg      :    382.18s CPU    406.11s WALL (     420 calls)

     Called by *egterg:
     cdiaghg      :     25.49s CPU     40.69s WALL (    2732 calls)
     h_psi        :    246.16s CPU    254.52s WALL (    2762 calls)
     s_psi        :     27.35s CPU     27.39s WALL (    2762 calls)
     g_psi        :      0.73s CPU      0.75s WALL (    2312 calls)

     Called by h_psi:
     h_psi:calbec :     28.33s CPU     28.92s WALL (    2762 calls)
     vloc_psi     :    188.10s CPU    195.78s WALL (    2762 calls)
     add_vuspsi   :     27.54s CPU     27.64s WALL (    2762 calls)

     General routines
     calbec       :     37.71s CPU     38.48s WALL (    3182 calls)
     fft          :      4.33s CPU      5.23s WALL (     369 calls)
     ffts         :      0.11s CPU      0.12s WALL (      58 calls)
     fftw         :    192.54s CPU    200.45s WALL (  252802 calls)
     interpolate  :      0.41s CPU      0.44s WALL (      30 calls)
 
     Parallel routines
     fft_scatt_xy :     30.75s CPU     31.85s WALL (  253229 calls)
     fft_scatt_yz :     75.43s CPU     79.83s WALL (  253229 calls)
 
     PWSCF        :   8m32.36s CPU   9m 8.06s WALL

 
   This run was terminated on:  13:22: 3   2Apr2021            

=------------------------------------------------------------------------------=
   JOB DONE.
=------------------------------------------------------------------------------=
