
     Program PWSCF v.6.7MaX starts on  2Apr2021 at 11: 6: 5 

     This program is part of the open-source Quantum ESPRESSO suite
     for quantum simulation of materials; please cite
         "P. Giannozzi et al., J. Phys.:Condens. Matter 21 395502 (2009);
         "P. Giannozzi et al., J. Phys.:Condens. Matter 29 465901 (2017);
          URL http://www.quantum-espresso.org", 
     in publications or presentations arising from this work. More details at
     http://www.quantum-espresso.org/quote

     Parallel version (MPI), running on    48 processors

     MPI processes distributed on     1 nodes
     R & G space division:  proc/nbgrp/npool/nimage =      48
     Reading input from Crdimer0.1405-0.1.scf.in

     Current dimensions of program PWSCF are:
     Max number of different atomic species (ntypx) = 10
     Max number of k-points (npk) =  40000
     Max angular momentum in pseudopotentials (lmaxx) =  3
     file N.pbe-n-kjpaw_psl.1.0.0.UPF: wavefunction(s)  2S renormalized
     file Cr.pbe-spn-kjpaw_psl.1.0.0.UPF: wavefunction(s)  3S 3P 3D renormalized
     file Cr.pbe-spn-kjpaw_psl.1.0.0.UPF: wavefunction(s)  3S 3P 3D renormalized

     --------------------------------------------
     Parameters for DFT-D3 Dispersion Correction:
     --------------------------------------------
       Reference C6 values for interpolation: 

         atom   Coordination number   C6
         B          0.000           214.36
         B          0.971           150.74
         B          1.944           106.23
         B          2.913            62.89
         B          4.586            56.06
         N          0.000            50.54
         N          0.994            44.25
         N          2.014            39.35
         N          2.990            31.16
         Cr1        0.000          1381.48
         Cr1        1.827           571.38
         Cr1       10.619           306.69
         Cr2        0.000          1381.48
         Cr2        1.827           571.38
         Cr2       10.619           306.69

       Values used:

         atom   Coordination number  R0_AB[au]  C6      C8
         B          3.337            3.039     62.89   2505.96
         B          3.335            3.039     62.89   2506.00
         B          3.356            3.039     62.88   2505.46
         B          3.336            3.039     62.89   2505.99
         B          3.354            3.039     62.88   2505.52
         B          3.336            3.039     62.89   2505.98
         N          3.134            2.478     31.22    688.70
         N          3.134            2.478     31.22    688.70
         N          3.167            2.478     31.21    688.42
         N          3.136            2.478     31.22    688.68
         N          3.138            2.478     31.22    688.66
         N          3.134            2.478     31.22    688.70
         N          3.137            2.478     31.22    688.67
         N          3.134            2.478     31.22    688.70
         N          3.137            2.478     31.22    688.67
         B          3.336            3.039     62.89   2506.00
         B          3.335            3.039     62.89   2506.00
         B          3.336            3.039     62.89   2505.98
         B          3.354            3.039     62.88   2505.52
         B          3.337            3.039     62.89   2505.96
         B          3.336            3.039     62.89   2506.00
         N          3.137            2.478     31.22    688.67
         B          3.335            3.039     62.89   2506.01
         B          3.336            3.039     62.89   2505.99
         B          3.351            3.039     62.88   2505.61
         N          3.134            2.478     31.22    688.70
         N          3.134            2.478     31.22    688.70
         N          3.136            2.478     31.22    688.68
         N          3.136            2.478     31.22    688.68
         N          3.167            2.478     31.21    688.42
         N          3.136            2.478     31.22    688.68
         B          3.351            3.039     62.88   2505.61
         Cr1        0.762            3.252   1281.23 118243.33
         Cr2        0.762            3.252   1281.23 118243.34

         Molecular C6 ( Ry / a.u.^6 ) =     78005.35


     Subspace diagonalization in iterative solution of the eigenvalue problem:
     one sub-group per band group will be used
     scalapack distributed-memory algorithm (size of sub-group:  6*  6 procs)

 
     Parallelization info
     --------------------
     sticks:   dense  smooth     PW     G-vecs:    dense   smooth      PW
     Min         235      98     26                36277     9874    1408
     Max         236      99     27                36282     9883    1425
     Sum       11311    4741   1285              1741401   474235   68095
 


     bravais-lattice index     =            4
     lattice parameter (alat)  =      18.9275  a.u.
     unit-cell volume          =   10553.3021 (a.u.)^3
     number of atoms/cell      =           34
     number of atomic types    =            4
     number of electrons       =       156.00
     number of Kohn-Sham states=           94
     kinetic-energy cutoff     =      48.0000  Ry
     charge density cutoff     =     457.0000  Ry
     scf convergence threshold =      1.0E-07
     mixing beta               =       0.5000
     number of iterations used =            8  plain     mixing
     Exchange-correlation= SLA  PW   PBX  PBC
                           (   1   4   3   4   0   0   0)

     celldm(1)=  18.927497  celldm(2)=   0.000000  celldm(3)=   1.797125
     celldm(4)=   0.000000  celldm(5)=   0.000000  celldm(6)=   0.000000

     crystal axes: (cart. coord. in units of alat)
               a(1) = (   1.000000   0.000000   0.000000 )  
               a(2) = (  -0.500000   0.866025   0.000000 )  
               a(3) = (   0.000000   0.000000   1.797125 )  

     reciprocal axes: (cart. coord. in units 2 pi/alat)
               b(1) = (  1.000000  0.577350  0.000000 )  
               b(2) = (  0.000000  1.154701  0.000000 )  
               b(3) = (  0.000000  0.000000  0.556444 )  


     PseudoPot. # 1 for B  read from file:
     /home/sf05/q-e-qe-6.7MaX-Release/pseudo/B.pbe-n-kjpaw_psl.1.0.0.UPF
     MD5 check sum: d9c678ba5d3b2fd7b74e61139c9288d8
     Pseudo is Projector augmented-wave + core cor, Zval =  3.0
     Generated using "atomic" code by A. Dal Corso  v.5.1.2
     Shape of augmentation charge: PSQ
     Using radial grid of 1059 points,  4 beta functions with: 
                l(1) =   0
                l(2) =   0
                l(3) =   1
                l(4) =   1
     Q(r) pseudized with 0 coefficients 


     PseudoPot. # 2 for N  read from file:
     /home/sf05/q-e-qe-6.7MaX-Release/pseudo/N.pbe-n-kjpaw_psl.1.0.0.UPF
     MD5 check sum: e0e4e94a9c4025c5b51bd7d8793849bd
     Pseudo is Projector augmented-wave + core cor, Zval =  5.0
     Generated using "atomic" code by A. Dal Corso  v.5.1.2
     Shape of augmentation charge: PSQ
     Using radial grid of 1085 points,  4 beta functions with: 
                l(1) =   0
                l(2) =   0
                l(3) =   1
                l(4) =   1
     Q(r) pseudized with 0 coefficients 


     PseudoPot. # 3 for Cr read from file:
     /home/sf05/q-e-qe-6.7MaX-Release/pseudo/Cr.pbe-spn-kjpaw_psl.1.0.0.UPF
     MD5 check sum: 198f1a2427a48552563eee314eba32ba
     Pseudo is Projector augmented-wave + core cor, Zval = 14.0
     Generated using &quot;atomic&quot; code by A. Dal Corso  v.6.3
     Shape of augmentation charge: PSQ
     Using radial grid of 1183 points,  6 beta functions with: 
                l(1) =   0
                l(2) =   0
                l(3) =   1
                l(4) =   1
                l(5) =   2
                l(6) =   2
     Q(r) pseudized with 0 coefficients 


     PseudoPot. # 4 for Cr read from file:
     /home/sf05/q-e-qe-6.7MaX-Release/pseudo/Cr.pbe-spn-kjpaw_psl.1.0.0.UPF
     MD5 check sum: 198f1a2427a48552563eee314eba32ba
     Pseudo is Projector augmented-wave + core cor, Zval = 14.0
     Generated using &quot;atomic&quot; code by A. Dal Corso  v.6.3
     Shape of augmentation charge: PSQ
     Using radial grid of 1183 points,  6 beta functions with: 
                l(1) =   0
                l(2) =   0
                l(3) =   1
                l(4) =   1
                l(5) =   2
                l(6) =   2
     Q(r) pseudized with 0 coefficients 


     atomic species   valence    mass     pseudopotential
        B              3.00    10.81100     B ( 1.00)
        N              5.00    14.00674     N ( 1.00)
        Cr1           14.00    51.99610     Cr( 1.00)
        Cr2           14.00    51.99610     Cr( 1.00)

     Starting magnetic structure 
     atomic species   magnetization
        B            0.000
        N            0.000
        Cr1          1.000
        Cr2          1.000

     No symmetry found



   Cartesian axes

     site n.     atom                  positions (alat units)
         1           B   tau(   1) = (  -0.1250000   0.2165064   0.8985623  )
         2           B   tau(   2) = (   0.3750000   0.6495191   0.8985623  )
         3           B   tau(   3) = (   0.2500000   0.0000000   0.8985623  )
         4           B   tau(   4) = (   0.7500000   0.0000000   0.8985623  )
         5           B   tau(   5) = (   0.1250000   0.2165064   0.8985623  )
         6           B   tau(   6) = (  -0.3750000   0.6495191   0.8985623  )
         7           N   tau(   7) = (   0.7500005   0.2886748   0.8985623  )
         8           N   tau(   8) = (   0.3750005   0.5051812   0.8985623  )
         9           N   tau(   9) = (   0.3750005   0.0721685   0.8985623  )
        10           N   tau(  10) = (   0.6250005   0.0721685   0.8985623  )
        11           N   tau(  11) = (   0.2500005   0.2886748   0.8985623  )
        12           N   tau(  12) = (   0.6250005   0.5051812   0.8985623  )
        13           N   tau(  13) = (   0.0000005   0.2886748   0.8985623  )
        14           N   tau(  14) = (   0.2500005   0.7216875   0.8985623  )
        15           N   tau(  15) = (  -0.2499995   0.7216875   0.8985623  )
        16           B   tau(  16) = (   0.0000000   0.4330127   0.8985623  )
        17           B   tau(  17) = (   0.1250000   0.6495191   0.8985623  )
        18           B   tau(  18) = (  -0.1250000   0.6495191   0.8985623  )
        19           B   tau(  19) = (   0.3750000   0.2165064   0.8985623  )
        20           B   tau(  20) = (   0.6250000   0.2165064   0.8985623  )
        21           B   tau(  21) = (   0.5000000   0.4330127   0.8985623  )
        22           N   tau(  22) = (   0.5000005   0.2886748   0.8985623  )
        23           B   tau(  23) = (  -0.2500000   0.4330127   0.8985623  )
        24           B   tau(  24) = (   0.2500000   0.4330127   0.8985623  )
        25           B   tau(  25) = (   0.5000000   0.0000000   0.8985623  )
        26           N   tau(  26) = (  -0.1249995   0.5051812   0.8985623  )
        27           N   tau(  27) = (   0.1250005   0.5051812   0.8985623  )
        28           N   tau(  28) = (   0.0000005   0.7216875   0.8985623  )
        29           N   tau(  29) = (   0.5000005   0.7216875   0.8985623  )
        30           N   tau(  30) = (   0.1250005   0.0721685   0.8985623  )
        31           N   tau(  31) = (   0.8750005   0.0721685   0.8985623  )
        32           B   tau(  32) = (   0.0000000   0.0000000   0.8985623  )
        33           Cr1 tau(  33) = (   0.3905000   0.0866025   1.2040735  )
        34           Cr2 tau(  34) = (   0.1095000   0.0866025   1.2040735  )

     number of k points=    15  Gaussian smearing, width (Ry)=  0.0000
                       cart. coord. in units 2pi/alat
        k(    1) = (   0.1666667   0.2886751   0.0000000), wk =   0.0740741
        k(    2) = (   0.1666667  -0.4811252   0.0000000), wk =   0.0740741
        k(    3) = (   0.1666667  -0.0962250   0.0000000), wk =   0.0740741
        k(    4) = (  -0.5000000  -0.8660254   0.0000000), wk =   0.0370370
        k(    5) = (  -0.1666667   0.2886751   0.0000000), wk =   0.0740741
        k(    6) = (   0.3333333   0.0000000   0.0000000), wk =   0.0740741
        k(    7) = (  -0.1666667  -0.4811252   0.0000000), wk =   0.0740741
        k(    8) = (   0.5000000  -0.0962250   0.0000000), wk =   0.0740741
        k(    9) = (  -0.3333333  -0.3849002   0.0000000), wk =   0.0740741
        k(   10) = (   0.5000000   0.0962250   0.0000000), wk =   0.0740741
        k(   11) = (  -0.3333333   0.3849002   0.0000000), wk =   0.0740741
        k(   12) = (  -0.1666667  -0.0962250   0.0000000), wk =   0.0740741
        k(   13) = (  -0.0000000  -0.1924501   0.0000000), wk =   0.0740741
        k(   14) = (   0.5000000  -0.8660254   0.0000000), wk =   0.0370370
        k(   15) = (  -1.0000000   0.0000000   0.0000000), wk =   0.0370370

     Dense  grid:  1741401 G-vectors     FFT dimensions: ( 135, 135, 240)

     Smooth grid:   474235 G-vectors     FFT dimensions: (  90,  90, 160)

     Estimated max dynamical RAM per process >     218.62 MB

     Estimated total dynamical RAM >      10.25 GB
     Generating pointlists ...
     new r_m :   0.0595 (alat units)  1.1269 (a.u.) for type    1
     new r_m :   0.0595 (alat units)  1.1269 (a.u.) for type    2
     new r_m :   0.1159 (alat units)  2.1939 (a.u.) for type    3
     new r_m :   0.1159 (alat units)  2.1939 (a.u.) for type    4

     Initial potential from superposition of free atoms

     starting charge  155.99382, renormalised to  156.00000

     negative rho (up, down):  6.705E-03 4.655E-04
     Starting wfcs are  148 randomized atomic wfcs
     Checking if some PAW data can be deallocated... 

     total cpu time spent up to now is       20.2 secs

     Self-consistent Calculation

     iteration #  1     ecut=    48.00 Ry     beta= 0.50
     Davidson diagonalization with overlap
     ethr =  1.00E-02,  avg # of iterations =  2.8

     negative rho (up, down):  4.890E-03 2.903E-03

     total cpu time spent up to now is       60.1 secs

     total energy              =   -1130.73776078 Ry
     estimated scf accuracy    <      11.35516513 Ry

     total magnetization       =    12.00 Bohr mag/cell
     absolute magnetization    =    12.16 Bohr mag/cell

     iteration #  2     ecut=    48.00 Ry     beta= 0.50
     Davidson diagonalization with overlap
     ethr =  7.28E-03,  avg # of iterations =  2.7

     negative rho (up, down):  1.100E-02 1.034E-02

     total cpu time spent up to now is       97.3 secs

     total energy              =   -1132.45988221 Ry
     estimated scf accuracy    <       4.89197630 Ry

     total magnetization       =     9.04 Bohr mag/cell
     absolute magnetization    =     9.52 Bohr mag/cell

     iteration #  3     ecut=    48.00 Ry     beta= 0.50
     Davidson diagonalization with overlap
     ethr =  3.14E-03,  avg # of iterations =  7.5

     negative rho (up, down):  7.397E-03 7.435E-03

     total cpu time spent up to now is      138.7 secs

     total energy              =   -1133.49426141 Ry
     estimated scf accuracy    <       1.42600853 Ry

     total magnetization       =    10.00 Bohr mag/cell
     absolute magnetization    =    10.20 Bohr mag/cell

     iteration #  4     ecut=    48.00 Ry     beta= 0.50
     Davidson diagonalization with overlap
     ethr =  9.14E-04,  avg # of iterations =  5.4

     negative rho (up, down):  6.483E-03 5.720E-03

     total cpu time spent up to now is      172.9 secs

     total energy              =   -1133.80673722 Ry
     estimated scf accuracy    <       0.25922734 Ry

     total magnetization       =    10.00 Bohr mag/cell
     absolute magnetization    =    10.07 Bohr mag/cell

     iteration #  5     ecut=    48.00 Ry     beta= 0.50
     Davidson diagonalization with overlap
     ethr =  1.66E-04,  avg # of iterations = 10.2

     negative rho (up, down):  3.995E-03 3.991E-03

     total cpu time spent up to now is      213.4 secs

     total energy              =   -1133.78739384 Ry
     estimated scf accuracy    <       0.24243614 Ry

     total magnetization       =    10.00 Bohr mag/cell
     absolute magnetization    =    10.02 Bohr mag/cell

     iteration #  6     ecut=    48.00 Ry     beta= 0.50
     Davidson diagonalization with overlap
     ethr =  1.55E-04,  avg # of iterations =  5.6

     negative rho (up, down):  3.534E-03 3.927E-03

     total cpu time spent up to now is      249.6 secs

     total energy              =   -1133.81235347 Ry
     estimated scf accuracy    <       0.11686766 Ry

     total magnetization       =    10.00 Bohr mag/cell
     absolute magnetization    =    10.02 Bohr mag/cell

     iteration #  7     ecut=    48.00 Ry     beta= 0.50
     Davidson diagonalization with overlap
     ethr =  7.49E-05,  avg # of iterations =  5.6

     negative rho (up, down):  3.261E-03 3.767E-03

     total cpu time spent up to now is      285.3 secs

     total energy              =   -1133.82562887 Ry
     estimated scf accuracy    <       0.02071054 Ry

     total magnetization       =    10.00 Bohr mag/cell
     absolute magnetization    =    10.03 Bohr mag/cell

     iteration #  8     ecut=    48.00 Ry     beta= 0.50
     Davidson diagonalization with overlap
     ethr =  1.33E-05,  avg # of iterations =  5.6

     negative rho (up, down):  3.143E-03 3.768E-03

     total cpu time spent up to now is      318.8 secs

     total energy              =   -1133.82761446 Ry
     estimated scf accuracy    <       0.00122676 Ry

     total magnetization       =    10.00 Bohr mag/cell
     absolute magnetization    =    10.02 Bohr mag/cell

     iteration #  9     ecut=    48.00 Ry     beta= 0.50
     Davidson diagonalization with overlap
     c_bands:  2 eigenvalues not converged
     c_bands:  1 eigenvalues not converged
     c_bands:  2 eigenvalues not converged
     ethr =  7.86E-07,  avg # of iterations = 10.1

     negative rho (up, down):  3.118E-03 3.785E-03

     total cpu time spent up to now is      364.9 secs

     total energy              =   -1133.82793271 Ry
     estimated scf accuracy    <       0.00020388 Ry

     total magnetization       =    10.00 Bohr mag/cell
     absolute magnetization    =    10.01 Bohr mag/cell

     iteration # 10     ecut=    48.00 Ry     beta= 0.50
     Davidson diagonalization with overlap
     ethr =  1.31E-07,  avg # of iterations =  2.9

     negative rho (up, down):  3.108E-03 3.790E-03

     total cpu time spent up to now is      397.4 secs

     total energy              =   -1133.82797658 Ry
     estimated scf accuracy    <       0.00008600 Ry

     total magnetization       =    10.00 Bohr mag/cell
     absolute magnetization    =    10.01 Bohr mag/cell

     iteration # 11     ecut=    48.00 Ry     beta= 0.50
     Davidson diagonalization with overlap
     ethr =  5.51E-08,  avg # of iterations =  2.9

     negative rho (up, down):  3.104E-03 3.797E-03

     total cpu time spent up to now is      428.0 secs

     total energy              =   -1133.82799582 Ry
     estimated scf accuracy    <       0.00001280 Ry

     total magnetization       =    10.00 Bohr mag/cell
     absolute magnetization    =    10.01 Bohr mag/cell

     iteration # 12     ecut=    48.00 Ry     beta= 0.50
     Davidson diagonalization with overlap
     ethr =  8.21E-09,  avg # of iterations =  4.8

     negative rho (up, down):  3.101E-03 3.799E-03

     total cpu time spent up to now is      461.6 secs

     total energy              =   -1133.82800094 Ry
     estimated scf accuracy    <       0.00000165 Ry

     total magnetization       =    10.00 Bohr mag/cell
     absolute magnetization    =    10.01 Bohr mag/cell

     iteration # 13     ecut=    48.00 Ry     beta= 0.50
     Davidson diagonalization with overlap
     ethr =  1.06E-09,  avg # of iterations =  4.1

     negative rho (up, down):  3.100E-03 3.802E-03

     total cpu time spent up to now is      495.0 secs

     total energy              =   -1133.82800212 Ry
     estimated scf accuracy    <       0.00000044 Ry

     total magnetization       =    10.00 Bohr mag/cell
     absolute magnetization    =    10.01 Bohr mag/cell

     iteration # 14     ecut=    48.00 Ry     beta= 0.50
     Davidson diagonalization with overlap
     ethr =  2.80E-10,  avg # of iterations =  3.6

     negative rho (up, down):  3.099E-03 3.803E-03
 
     Magnetic moment per site:
     atom:    1    charge:    0.8807    magn:    0.0001    constr:    0.0000
     atom:    2    charge:    0.8804    magn:    0.0001    constr:    0.0000
     atom:    3    charge:    0.8792    magn:    0.0007    constr:    0.0000
     atom:    4    charge:    0.8807    magn:    0.0002    constr:    0.0000
     atom:    5    charge:    0.8801    magn:    0.0004    constr:    0.0000
     atom:    6    charge:    0.8801    magn:    0.0002    constr:    0.0000
     atom:    7    charge:    2.8611    magn:    0.0001    constr:    0.0000
     atom:    8    charge:    2.8609    magn:    0.0003    constr:    0.0000
     atom:    9    charge:    2.8611    magn:    0.0074    constr:    0.0000
     atom:   10    charge:    2.8609    magn:    0.0014    constr:    0.0000
     atom:   11    charge:    2.8605    magn:    0.0031    constr:    0.0000
     atom:   12    charge:    2.8609    magn:    0.0001    constr:    0.0000
     atom:   13    charge:    2.8598    magn:    0.0022    constr:    0.0000
     atom:   14    charge:    2.8599    magn:    0.0004    constr:    0.0000
     atom:   15    charge:    2.8596    magn:    0.0019    constr:    0.0000
     atom:   16    charge:    0.8800    magn:    0.0002    constr:    0.0000
     atom:   17    charge:    0.8801    magn:    0.0001    constr:    0.0000
     atom:   18    charge:    0.8798    magn:    0.0002    constr:    0.0000
     atom:   19    charge:    0.8795    magn:    0.0004    constr:    0.0000
     atom:   20    charge:    0.8801    magn:    0.0001    constr:    0.0000
     atom:   21    charge:    0.8797    magn:    0.0002    constr:    0.0000
     atom:   22    charge:    2.8611    magn:    0.0022    constr:    0.0000
     atom:   23    charge:    0.8799    magn:    0.0001    constr:    0.0000
     atom:   24    charge:    0.8797    magn:    0.0002    constr:    0.0000
     atom:   25    charge:    0.8804    magn:    0.0002    constr:    0.0000
     atom:   26    charge:    2.8598    magn:    0.0001    constr:    0.0000
     atom:   27    charge:    2.8598    magn:    0.0003    constr:    0.0000
     atom:   28    charge:    2.8596    magn:    0.0018    constr:    0.0000
     atom:   29    charge:    2.8594    magn:    0.0018    constr:    0.0000
     atom:   30    charge:    2.8598    magn:    0.0074    constr:    0.0000
     atom:   31    charge:    2.8596    magn:    0.0014    constr:    0.0000
     atom:   32    charge:    0.8807    magn:    0.0002    constr:    0.0000
     atom:   33    charge:   12.4971    magn:    4.2203    constr:    0.0000
     atom:   34    charge:   12.4970    magn:    4.2203    constr:    0.0000

     total cpu time spent up to now is      527.4 secs

     End of self-consistent calculation

 ------ SPIN UP ------------


          k = 0.1667 0.2887 0.0000 ( 59267 PWs)   bands (ev):

   -72.8833 -72.8744 -44.4372 -44.3503 -44.2915 -44.2829 -44.2503 -44.2416
   -21.2534 -20.6670 -20.6619 -20.1093 -20.1043 -19.5925 -19.5899 -19.1056
   -18.7057 -18.6973 -18.4615 -18.4585 -18.2016 -18.0910 -18.0828 -17.8556
   -12.4903 -12.2109 -12.2089 -11.8262 -11.8236 -11.6644 -11.1977 -11.1949
   -10.3976 -10.3739 -10.1233 -10.1206  -9.5953  -9.5940  -8.8438  -8.8317
    -8.8299  -8.7714  -8.7683  -8.6021  -8.2028  -8.0628  -8.0181  -7.8357
    -7.8330  -7.4449  -7.4427  -7.2875  -7.2673  -7.2141  -7.2126  -6.9646
    -6.9629  -6.5757  -6.5404  -6.1601  -6.1587  -5.8784  -5.4245  -5.3112
    -5.2766  -5.2061  -4.9170  -4.9081  -4.5147  -4.3622  -4.3428  -3.9855
    -2.9008  -2.0584  -2.0434  -1.8469  -1.6571  -1.5668  -1.4895  -1.4783
    -1.3674  -1.3475  -1.2758  -0.7234   0.6359   0.8397   1.0906   1.1956
     1.2798   1.4581   1.5178   1.5752   1.6203   1.7881

          k = 0.1667-0.4811 0.0000 ( 59291 PWs)   bands (ev):

   -72.8833 -72.8744 -44.4372 -44.3503 -44.2915 -44.2829 -44.2503 -44.2416
   -21.1238 -20.9172 -20.7294 -20.1675 -19.8107 -19.4723 -19.3236 -19.1811
   -19.0200 -18.7841 -18.6513 -18.5483 -18.1571 -18.0925 -17.9281 -17.7300
   -12.3547 -12.1196 -12.0502 -11.9115 -11.6861 -11.6647 -11.5581 -10.9476
   -10.8965 -10.6298 -10.5281  -9.8667  -9.6991  -9.3419  -9.1169  -8.6773
    -8.6292  -8.5593  -8.3944  -8.3720  -8.1674  -8.1292  -8.0690  -8.0558
    -7.6958  -7.6292  -7.5004  -7.4796  -7.3638  -7.1763  -7.0735  -6.8680
    -6.6282  -6.3945  -6.1867  -6.1639  -5.9785  -5.9352  -5.7898  -5.7506
    -5.4570  -5.4017  -5.2236  -5.0441  -4.4551  -4.3485  -4.0953  -3.7739
    -2.8980  -2.0589  -2.0429  -1.8435  -1.6557  -1.5664  -1.4918  -1.4800
    -1.3675  -1.3475  -1.2763  -0.7266   0.5550   0.8464   1.0743   1.1343
     1.2083   1.2636   1.3987   1.8359   1.9254   2.1063

          k = 0.1667-0.0962 0.0000 ( 59226 PWs)   bands (ev):

   -72.8833 -72.8744 -44.4372 -44.3503 -44.2915 -44.2829 -44.2503 -44.2416
   -21.3197 -20.5430 -20.3545 -20.3412 -19.9989 -19.9836 -19.8109 -18.7408
   -18.7250 -18.3828 -18.3754 -18.3597 -18.2722 -18.2699 -18.0848 -18.0743
   -12.5117 -12.5099 -12.4137 -11.5892 -11.5801 -11.4301 -11.4285 -10.9327
   -10.9285  -9.9368  -9.9306  -9.6818  -9.3813  -9.3781  -9.2363  -9.2329
    -9.0482  -9.0460  -8.9312  -8.3309  -8.3259  -7.9081  -7.9055  -7.8902
    -7.8510  -7.7762  -7.6196  -7.5827  -7.1491  -7.0923  -6.9657  -6.8952
    -6.8901  -6.8553  -6.5388  -6.5326  -6.2635  -5.3694  -5.3162  -5.1492
    -5.0714  -4.8237  -4.8070  -4.7522  -4.6191  -4.6107  -4.3607  -4.3321
    -2.9036  -2.0579  -2.0439  -1.8503  -1.6597  -1.5669  -1.4875  -1.4766
    -1.3674  -1.3475  -1.2753  -0.7197   0.7259   0.8134   1.0494   1.2072
     1.2900   1.3420   1.5718   1.5860   1.7225   1.9128

          k =-0.5000-0.8660 0.0000 ( 59292 PWs)   bands (ev):

   -72.8833 -72.8744 -44.4372 -44.3503 -44.2915 -44.2829 -44.2502 -44.2416
   -21.0565 -21.0530 -20.4791 -20.4661 -19.4364 -19.4307 -19.4159 -19.4131
   -18.9983 -18.9949 -18.3288 -18.3252 -18.3236 -18.3227 -17.8028 -17.7909
   -12.0742 -12.0714 -12.0697 -12.0691 -11.8866 -11.8763 -11.3351 -11.3328
   -10.2436 -10.2352 -10.1419 -10.1403 -10.1322 -10.1314  -8.6010  -8.5556
    -8.5513  -8.5508  -8.5496  -8.5458  -7.8726  -7.8715  -7.8628  -7.8619
    -7.8308  -7.8233  -7.7932  -7.7538  -7.4945  -7.4935  -6.6206  -6.6110
    -6.3753  -6.3471  -6.3031  -6.2957  -6.1954  -6.1935  -5.7207  -5.6997
    -5.5505  -5.5490  -4.7356  -4.7313  -4.7015  -4.6928  -3.9002  -3.8670
    -2.8863  -2.0576  -2.0401  -1.8445  -1.6570  -1.5659  -1.4903  -1.4823
    -1.3708  -1.3545  -1.2813  -0.8480   0.7185   1.0179   1.1088   1.2032
     1.3262   1.5469   1.5819   1.6219   1.7315   1.7533

          k =-0.1667 0.2887 0.0000 ( 59267 PWs)   bands (ev):

   -72.8833 -72.8744 -44.4372 -44.3503 -44.2915 -44.2829 -44.2503 -44.2416
   -21.2534 -20.6670 -20.6619 -20.1093 -20.1043 -19.5925 -19.5899 -19.1056
   -18.7057 -18.6973 -18.4615 -18.4585 -18.2016 -18.0910 -18.0829 -17.8556
   -12.4903 -12.2109 -12.2089 -11.8262 -11.8236 -11.6644 -11.1976 -11.1949
   -10.3976 -10.3739 -10.1233 -10.1207  -9.5952  -9.5940  -8.8438  -8.8317
    -8.8298  -8.7715  -8.7683  -8.6021  -8.2028  -8.0628  -8.0181  -7.8357
    -7.8330  -7.4450  -7.4426  -7.2875  -7.2673  -7.2140  -7.2126  -6.9646
    -6.9630  -6.5757  -6.5404  -6.1601  -6.1587  -5.8784  -5.4246  -5.3112
    -5.2767  -5.2060  -4.9170  -4.9081  -4.5147  -4.3622  -4.3428  -3.9855
    -2.9008  -2.0584  -2.0434  -1.8469  -1.6571  -1.5668  -1.4895  -1.4783
    -1.3674  -1.3475  -1.2758  -0.7234   0.6359   0.8397   1.0906   1.1956
     1.2798   1.4581   1.5178   1.5752   1.6203   1.7881

          k = 0.3333 0.0000 0.0000 ( 59267 PWs)   bands (ev):

   -72.8833 -72.8744 -44.4372 -44.3503 -44.2915 -44.2829 -44.2503 -44.2416
   -21.2529 -20.6956 -20.6331 -20.1187 -20.0927 -19.6236 -19.5615 -19.1086
   -18.7234 -18.6725 -18.4743 -18.4477 -18.1964 -18.1181 -18.0645 -17.8543
   -12.4890 -12.2192 -12.2012 -11.8373 -11.8157 -11.6619 -11.2175 -11.1752
   -10.3974 -10.3728 -10.1387 -10.1064  -9.6018  -9.5854  -8.8445  -8.8374
    -8.8196  -8.7976  -8.7442  -8.6036  -8.2053  -8.1134  -7.9668  -7.8361
    -7.8299  -7.4512  -7.4355  -7.3082  -7.2397  -7.2251  -7.2010  -6.9757
    -6.9538  -6.6309  -6.4946  -6.1633  -6.1544  -5.8870  -5.4243  -5.3254
    -5.2467  -5.2066  -4.9441  -4.8838  -4.5063  -4.3994  -4.3215  -3.9832
    -2.8931  -2.0575  -2.0408  -1.8476  -1.6593  -1.5663  -1.4882  -1.4797
    -1.3697  -1.3522  -1.2789  -0.8077   0.7404   1.0192   1.1345   1.2340
     1.2981   1.4554   1.5241   1.5666   1.5731   1.8353

          k =-0.1667-0.4811 0.0000 ( 59291 PWs)   bands (ev):

   -72.8833 -72.8744 -44.4372 -44.3503 -44.2915 -44.2829 -44.2503 -44.2416
   -21.1238 -20.9172 -20.7294 -20.1675 -19.8107 -19.4722 -19.3236 -19.1811
   -19.0200 -18.7841 -18.6513 -18.5483 -18.1571 -18.0925 -17.9281 -17.7300
   -12.3548 -12.1196 -12.0502 -11.9114 -11.6861 -11.6647 -11.5582 -10.9476
   -10.8966 -10.6298 -10.5280  -9.8666  -9.6991  -9.3419  -9.1169  -8.6773
    -8.6292  -8.5593  -8.3943  -8.3720  -8.1673  -8.1292  -8.0690  -8.0559
    -7.6958  -7.6293  -7.5004  -7.4796  -7.3638  -7.1763  -7.0735  -6.8679
    -6.6283  -6.3945  -6.1867  -6.1639  -5.9785  -5.9351  -5.7898  -5.7506
    -5.4571  -5.4017  -5.2236  -5.0441  -4.4550  -4.3485  -4.0953  -3.7739
    -2.8980  -2.0589  -2.0429  -1.8435  -1.6557  -1.5664  -1.4918  -1.4800
    -1.3675  -1.3475  -1.2763  -0.7266   0.5550   0.8464   1.0743   1.1343
     1.2083   1.2636   1.3987   1.8359   1.9255   2.1063

          k = 0.5000-0.0962 0.0000 ( 59291 PWs)   bands (ev):

   -72.8833 -72.8744 -44.4372 -44.3503 -44.2915 -44.2829 -44.2503 -44.2416
   -21.1202 -20.9270 -20.7232 -20.1653 -19.8101 -19.4759 -19.3304 -19.1745
   -19.0219 -18.7865 -18.6364 -18.5560 -18.1428 -18.1131 -17.9244 -17.7293
   -12.3524 -12.1206 -12.0479 -11.9171 -11.7006 -11.6475 -11.5606 -10.9483
   -10.8935 -10.6275 -10.5314  -9.8638  -9.6997  -9.3429  -9.1161  -8.6651
    -8.6302  -8.5569  -8.4074  -8.3991  -8.1649  -8.1075  -8.0847  -8.0416
    -7.6904  -7.6300  -7.4993  -7.4811  -7.3567  -7.1783  -7.0744  -6.8651
    -6.6288  -6.4091  -6.2029  -6.1629  -5.9607  -5.9343  -5.7888  -5.7553
    -5.4586  -5.4061  -5.1907  -5.0606  -4.4309  -4.3833  -4.0900  -3.7725
    -2.8863  -2.0576  -2.0401  -1.8445  -1.6577  -1.5659  -1.4903  -1.4823
    -1.3708  -1.3544  -1.2812  -0.8477   0.7018   1.0155   1.1284   1.1976
     1.2579   1.2923   1.5298   1.7542   1.8506   1.9312

          k =-0.3333-0.3849 0.0000 ( 59291 PWs)   bands (ev):

   -72.8833 -72.8744 -44.4372 -44.3503 -44.2915 -44.2829 -44.2503 -44.2416
   -21.1214 -20.9235 -20.7256 -20.1648 -19.8132 -19.4727 -19.3236 -19.1797
   -19.0257 -18.7837 -18.6383 -18.5555 -18.1460 -18.1089 -17.9246 -17.7296
   -12.3539 -12.1172 -12.0511 -11.9149 -11.6877 -11.6624 -11.5596 -10.9482
   -10.8933 -10.6268 -10.5320  -9.8645  -9.6998  -9.3424  -9.1176  -8.6693
    -8.6282  -8.5590  -8.3968  -8.3935  -8.1667  -8.1159  -8.0687  -8.0593
    -7.6907  -7.6282  -7.5074  -7.4735  -7.3546  -7.1784  -7.0754  -6.8765
    -6.6261  -6.3969  -6.1845  -6.1659  -5.9772  -5.9329  -5.7892  -5.7654
    -5.4584  -5.3984  -5.1922  -5.0622  -4.4342  -4.3786  -4.0897  -3.7730
    -2.8903  -2.0580  -2.0414  -1.8442  -1.6566  -1.5661  -1.4908  -1.4815
    -1.3697  -1.3521  -1.2795  -0.8109   0.6547   0.9762   1.0901   1.1802
     1.2171   1.3513   1.4220   1.8218   1.8896   1.9221

          k = 0.5000 0.0962 0.0000 ( 59291 PWs)   bands (ev):

   -72.8833 -72.8744 -44.4372 -44.3503 -44.2915 -44.2829 -44.2503 -44.2416
   -21.1202 -20.9270 -20.7232 -20.1653 -19.8101 -19.4759 -19.3304 -19.1745
   -19.0219 -18.7865 -18.6364 -18.5560 -18.1428 -18.1131 -17.9244 -17.7293
   -12.3524 -12.1206 -12.0479 -11.9171 -11.7005 -11.6475 -11.5606 -10.9483
   -10.8935 -10.6275 -10.5314  -9.8638  -9.6997  -9.3429  -9.1161  -8.6651
    -8.6302  -8.5569  -8.4074  -8.3991  -8.1649  -8.1075  -8.0847  -8.0415
    -7.6905  -7.6299  -7.4993  -7.4811  -7.3567  -7.1784  -7.0744  -6.8651
    -6.6287  -6.4091  -6.2029  -6.1628  -5.9607  -5.9342  -5.7889  -5.7553
    -5.4587  -5.4061  -5.1907  -5.0606  -4.4309  -4.3832  -4.0900  -3.7725
    -2.8863  -2.0576  -2.0401  -1.8445  -1.6577  -1.5659  -1.4903  -1.4823
    -1.3708  -1.3544  -1.2812  -0.8477   0.7018   1.0155   1.1284   1.1976
     1.2579   1.2922   1.5298   1.7542   1.8506   1.9312

          k =-0.3333 0.3849 0.0000 ( 59291 PWs)   bands (ev):

   -72.8833 -72.8744 -44.4372 -44.3503 -44.2915 -44.2829 -44.2503 -44.2416
   -21.1214 -20.9235 -20.7256 -20.1648 -19.8132 -19.4727 -19.3236 -19.1797
   -19.0257 -18.7837 -18.6383 -18.5555 -18.1460 -18.1089 -17.9246 -17.7296
   -12.3539 -12.1172 -12.0511 -11.9149 -11.6877 -11.6624 -11.5596 -10.9482
   -10.8933 -10.6267 -10.5320  -9.8645  -9.6998  -9.3424  -9.1176  -8.6693
    -8.6283  -8.5589  -8.3968  -8.3935  -8.1668  -8.1159  -8.0687  -8.0593
    -7.6907  -7.6282  -7.5074  -7.4734  -7.3546  -7.1783  -7.0754  -6.8765
    -6.6261  -6.3968  -6.1845  -6.1660  -5.9772  -5.9330  -5.7891  -5.7654
    -5.4582  -5.3984  -5.1922  -5.0622  -4.4342  -4.3786  -4.0897  -3.7730
    -2.8903  -2.0580  -2.0414  -1.8442  -1.6566  -1.5661  -1.4908  -1.4815
    -1.3697  -1.3521  -1.2795  -0.8109   0.6547   0.9762   1.0901   1.1802
     1.2171   1.3514   1.4220   1.8218   1.8896   1.9220

          k =-0.1667-0.0962 0.0000 ( 59226 PWs)   bands (ev):

   -72.8833 -72.8744 -44.4372 -44.3503 -44.2915 -44.2829 -44.2503 -44.2416
   -21.3197 -20.5430 -20.3545 -20.3412 -19.9989 -19.9836 -19.8109 -18.7408
   -18.7250 -18.3828 -18.3754 -18.3597 -18.2722 -18.2699 -18.0848 -18.0743
   -12.5117 -12.5099 -12.4137 -11.5892 -11.5801 -11.4302 -11.4285 -10.9327
   -10.9285  -9.9369  -9.9306  -9.6818  -9.3813  -9.3781  -9.2363  -9.2330
    -9.0482  -9.0460  -8.9312  -8.3309  -8.3259  -7.9081  -7.9054  -7.8902
    -7.8509  -7.7763  -7.6196  -7.5827  -7.1491  -7.0923  -6.9657  -6.8952
    -6.8900  -6.8553  -6.5388  -6.5325  -6.2635  -5.3694  -5.3162  -5.1491
    -5.0715  -4.8237  -4.8069  -4.7522  -4.6191  -4.6107  -4.3607  -4.3321
    -2.9036  -2.0579  -2.0439  -1.8503  -1.6597  -1.5669  -1.4875  -1.4766
    -1.3674  -1.3475  -1.2753  -0.7197   0.7259   0.8134   1.0494   1.2072
     1.2900   1.3420   1.5719   1.5860   1.7225   1.9128

          k =-0.0000-0.1925 0.0000 ( 59226 PWs)   bands (ev):

   -72.8833 -72.8744 -44.4372 -44.3503 -44.2915 -44.2829 -44.2503 -44.2416
   -21.3199 -20.5368 -20.3592 -20.3478 -19.9917 -19.9813 -19.8153 -18.7356
   -18.7251 -18.4150 -18.3682 -18.3578 -18.2595 -18.2581 -18.0874 -18.0781
   -12.5198 -12.5020 -12.4135 -11.5891 -11.5814 -11.4377 -11.4177 -10.9335
   -10.9300  -9.9344  -9.9332  -9.6816  -9.3864  -9.3714  -9.2361  -9.2353
    -9.0476  -9.0459  -8.9318  -8.3292  -8.3269  -7.9085  -7.9022  -7.8704
    -7.8506  -7.7785  -7.6385  -7.6021  -7.1172  -7.0943  -6.9640  -6.8956
    -6.8914  -6.8677  -6.5377  -6.5330  -6.2641  -5.3505  -5.3242  -5.1496
    -5.0710  -4.8803  -4.7831  -4.7587  -4.6021  -4.5875  -4.3597  -4.3445
    -2.9074  -2.0584  -2.0451  -1.8499  -1.6586  -1.5671  -1.4883  -1.4760
    -1.3663  -1.3452  -1.2740  -0.6703   0.6392   0.7582   1.0337   1.1764
     1.2467   1.4033   1.5529   1.6101   1.6853   1.9907

          k = 0.5000-0.8660 0.0000 ( 59292 PWs)   bands (ev):

   -72.8833 -72.8744 -44.4372 -44.3503 -44.2915 -44.2829 -44.2502 -44.2416
   -21.0565 -21.0530 -20.4791 -20.4661 -19.4364 -19.4307 -19.4159 -19.4131
   -18.9983 -18.9950 -18.3288 -18.3252 -18.3236 -18.3228 -17.8028 -17.7909
   -12.0742 -12.0713 -12.0697 -12.0691 -11.8866 -11.8762 -11.3350 -11.3328
   -10.2437 -10.2352 -10.1419 -10.1403 -10.1322 -10.1314  -8.6010  -8.5556
    -8.5512  -8.5509  -8.5495  -8.5458  -7.8726  -7.8715  -7.8629  -7.8618
    -7.8309  -7.8233  -7.7932  -7.7538  -7.4946  -7.4936  -6.6205  -6.6110
    -6.3753  -6.3471  -6.3031  -6.2957  -6.1953  -6.1933  -5.7208  -5.6997
    -5.5506  -5.5491  -4.7356  -4.7312  -4.7015  -4.6928  -3.9002  -3.8670
    -2.8863  -2.0576  -2.0401  -1.8445  -1.6570  -1.5659  -1.4903  -1.4823
    -1.3708  -1.3545  -1.2813  -0.8480   0.7185   1.0179   1.1088   1.2032
     1.3262   1.5468   1.5818   1.6219   1.7315   1.7533

          k =-1.0000 0.0000 0.0000 ( 59292 PWs)   bands (ev):

   -72.8833 -72.8744 -44.4372 -44.3503 -44.2915 -44.2829 -44.2503 -44.2416
   -21.0843 -21.0216 -20.4812 -20.4700 -19.4374 -19.4329 -19.4171 -19.4010
   -19.0224 -18.9722 -18.3962 -18.3167 -18.3082 -18.2809 -17.8025 -17.7935
   -12.1228 -12.0727 -12.0506 -12.0341 -11.8864 -11.8766 -11.3580 -11.3119
   -10.2493 -10.2476 -10.1366 -10.1364 -10.1289 -10.1288  -8.6435  -8.5904
    -8.5561  -8.5350  -8.5184  -8.4927  -7.8842  -7.8751  -7.8672  -7.8652
    -7.8195  -7.8172  -7.7959  -7.7681  -7.5230  -7.4679  -6.6170  -6.6112
    -6.3692  -6.3484  -6.3045  -6.2766  -6.2175  -6.1749  -5.7500  -5.6756
    -5.5752  -5.5245  -4.8494  -4.6989  -4.6783  -4.6399  -3.8924  -3.8784
    -2.9019  -2.0594  -2.0432  -1.8432  -1.6553  -1.5666  -1.4922  -1.4793
    -1.3664  -1.3454  -1.2749  -0.6781   0.5153   0.7588   1.0910   1.1069
     1.1591   1.5195   1.5783   1.6196   1.6330   1.9257

 ------ SPIN DOWN ----------


          k = 0.1667 0.2887 0.0000 ( 59267 PWs)   bands (ev):

   -68.6886 -68.6783 -40.3710 -40.2684 -40.1232 -40.1130 -40.0457 -40.0354
   -21.2496 -20.6625 -20.6589 -20.1054 -20.1007 -19.5883 -19.5866 -19.1017
   -18.7000 -18.6942 -18.4575 -18.4547 -18.1968 -18.0868 -18.0799 -17.8515
   -12.4881 -12.2085 -12.2066 -11.8239 -11.8216 -11.6624 -11.1949 -11.1929
   -10.3949 -10.3714 -10.1200 -10.1187  -9.5926  -9.5918  -8.8292  -8.8271
    -8.8236  -8.7690  -8.7660  -8.5998  -8.2005  -8.0383  -8.0090  -7.8331
    -7.8307  -7.4413  -7.4401  -7.2680  -7.2538  -7.2115  -7.2103  -6.9622
    -6.9606  -6.5541  -6.5326  -6.1573  -6.1563  -5.8621  -5.4215  -5.2851
    -5.2663  -5.2034  -4.9025  -4.8954  -4.4972  -4.3473  -4.3346  -3.9718
    -1.4522   0.3964   0.8090   0.9545   1.1034   1.1699   1.2818   1.3558
     1.3922   1.4649   1.5453   1.6172   1.6419   1.7286   1.8822   2.0287
     2.0550   2.0721   2.1437   2.1695   2.3089   2.3487

          k = 0.1667-0.4811 0.0000 ( 59291 PWs)   bands (ev):

   -68.6886 -68.6783 -40.3710 -40.2684 -40.1232 -40.1130 -40.0457 -40.0354
   -21.1196 -20.9140 -20.7256 -20.1635 -19.8069 -19.4685 -19.3197 -19.1771
   -19.0162 -18.7804 -18.6458 -18.5453 -18.1515 -18.0902 -17.9240 -17.7258
   -12.3524 -12.1173 -12.0480 -11.9094 -11.6841 -11.6622 -11.5559 -10.9451
   -10.8938 -10.6272 -10.5258  -9.8637  -9.6968  -9.3391  -9.1145  -8.6536
    -8.6267  -8.5564  -8.3922  -8.3603  -8.1650  -8.1125  -8.0666  -8.0536
    -7.6930  -7.6268  -7.4979  -7.4774  -7.3460  -7.1735  -7.0712  -6.8518
    -6.6251  -6.3794  -6.1694  -6.1613  -5.9636  -5.9321  -5.7871  -5.7356
    -5.4545  -5.3879  -5.1996  -5.0357  -4.4339  -4.3426  -4.0816  -3.7602
    -1.4431   0.3865   0.8062   0.9192   1.0235   1.1298   1.2172   1.2614
     1.3661   1.4057   1.5657   1.7307   1.7700   1.8857   1.9228   2.0620
     2.1139   2.1305   2.1652   2.2095   2.3156   2.3452

          k = 0.1667-0.0962 0.0000 ( 59226 PWs)   bands (ev):

   -68.6886 -68.6782 -40.3710 -40.2684 -40.1232 -40.1129 -40.0457 -40.0354
   -21.3160 -20.5387 -20.3507 -20.3382 -19.9940 -19.9804 -19.8077 -18.7354
   -18.7215 -18.3776 -18.3715 -18.3564 -18.2680 -18.2659 -18.0810 -18.0710
   -12.5094 -12.5077 -12.4115 -11.5866 -11.5783 -11.4277 -11.4261 -10.9301
   -10.9263  -9.9341  -9.9285  -9.6790  -9.3787  -9.3758  -9.2334  -9.2304
    -9.0457  -9.0438  -8.9125  -8.3277  -8.3232  -7.9052  -7.9031  -7.8676
    -7.8475  -7.7739  -7.6028  -7.5730  -7.1234  -7.0823  -6.9630  -6.8925
    -6.8880  -6.8452  -6.5360  -6.5304  -6.2610  -5.3428  -5.3054  -5.1464
    -5.0686  -4.8010  -4.7905  -4.7425  -4.6055  -4.5992  -4.3460  -4.3229
    -1.4612   0.4089   0.8091   0.9607   1.0589   1.1433   1.2027   1.3052
     1.5014   1.5266   1.6046   1.6649   1.7852   1.8181   1.8701   1.9346
     2.0257   2.0676   2.1200   2.1391   2.2593   2.3505

          k =-0.5000-0.8660 0.0000 ( 59292 PWs)   bands (ev):

   -68.6886 -68.6783 -40.3710 -40.2684 -40.1232 -40.1130 -40.0457 -40.0354
   -21.0517 -21.0502 -20.4751 -20.4630 -19.4309 -19.4260 -19.4130 -19.4100
   -18.9935 -18.9922 -18.3229 -18.3214 -18.3207 -18.3190 -17.7983 -17.7873
   -12.0709 -12.0687 -12.0681 -12.0673 -11.8841 -11.8748 -11.3322 -11.3309
   -10.2406 -10.2333 -10.1387 -10.1376 -10.1300 -10.1291  -8.5721  -8.5509
    -8.5493  -8.5485  -8.5472  -8.5379  -7.8694  -7.8687  -7.8609  -7.8598
    -7.8275  -7.8202  -7.7751  -7.7438  -7.4928  -7.4907  -6.6173  -6.6090
    -6.3432  -6.3262  -6.2946  -6.2873  -6.1926  -6.1906  -5.7017  -5.6915
    -5.5475  -5.5467  -4.7130  -4.7075  -4.6936  -4.6885  -3.8831  -3.8575
    -1.4200   0.1455   0.8194   0.9954   1.0564   1.1495   1.2466   1.3881
     1.5024   1.5568   1.5717   1.7109   1.7624   1.8732   1.9068   1.9394
     1.9811   2.0918   2.1733   2.1904   2.3235   2.3570

          k =-0.1667 0.2887 0.0000 ( 59267 PWs)   bands (ev):

   -68.6886 -68.6783 -40.3710 -40.2684 -40.1232 -40.1130 -40.0457 -40.0354
   -21.2496 -20.6625 -20.6589 -20.1054 -20.1007 -19.5883 -19.5866 -19.1017
   -18.7000 -18.6942 -18.4575 -18.4547 -18.1968 -18.0868 -18.0799 -17.8515
   -12.4880 -12.2085 -12.2066 -11.8239 -11.8216 -11.6624 -11.1948 -11.1929
   -10.3949 -10.3714 -10.1200 -10.1187  -9.5926  -9.5918  -8.8292  -8.8271
    -8.8236  -8.7691  -8.7660  -8.5998  -8.2006  -8.0383  -8.0090  -7.8331
    -7.8307  -7.4414  -7.4401  -7.2680  -7.2539  -7.2115  -7.2103  -6.9622
    -6.9606  -6.5541  -6.5326  -6.1573  -6.1563  -5.8621  -5.4216  -5.2851
    -5.2663  -5.2033  -4.9025  -4.8954  -4.4972  -4.3473  -4.3346  -3.9718
    -1.4522   0.3964   0.8091   0.9545   1.1034   1.1699   1.2818   1.3558
     1.3922   1.4649   1.5453   1.6172   1.6420   1.7286   1.8822   2.0287
     2.0550   2.0721   2.1437   2.1695   2.3090   2.3487

          k = 0.3333 0.0000 0.0000 ( 59267 PWs)   bands (ev):

   -68.6886 -68.6783 -40.3710 -40.2684 -40.1232 -40.1129 -40.0457 -40.0354
   -21.2491 -20.6901 -20.6312 -20.1145 -20.0895 -19.6178 -19.5595 -19.1043
   -18.7174 -18.6706 -18.4697 -18.4442 -18.1923 -18.1120 -18.0624 -17.8504
   -12.4868 -12.2165 -12.1992 -11.8347 -11.8138 -11.6601 -11.2141 -11.1737
   -10.3947 -10.3704 -10.1350 -10.1047  -9.5990  -9.5836  -8.8343  -8.8276
    -8.8148  -8.7940  -8.7431  -8.6011  -8.2027  -8.0840  -7.9630  -7.8336
    -7.8278  -7.4475  -7.4332  -7.2856  -7.2313  -7.2219  -7.1994  -6.9727
    -6.9519  -6.6029  -6.4904  -6.1605  -6.1522  -5.8683  -5.4213  -5.3024
    -5.2381  -5.2038  -4.9245  -4.8753  -4.4904  -4.3799  -4.3140  -3.9702
    -1.4374   0.2252   0.8583   0.9576   1.1023   1.1396   1.2516   1.4307
     1.4658   1.4959   1.5551   1.7040   1.7538   1.8569   1.8940   1.9207
     2.0176   2.0643   2.1466   2.2185   2.3084   2.3498

          k =-0.1667-0.4811 0.0000 ( 59291 PWs)   bands (ev):

   -68.6886 -68.6783 -40.3710 -40.2684 -40.1232 -40.1130 -40.0457 -40.0354
   -21.1196 -20.9140 -20.7256 -20.1635 -19.8069 -19.4684 -19.3197 -19.1771
   -19.0162 -18.7804 -18.6458 -18.5453 -18.1515 -18.0902 -17.9240 -17.7258
   -12.3524 -12.1173 -12.0480 -11.9094 -11.6841 -11.6622 -11.5559 -10.9451
   -10.8938 -10.6272 -10.5258  -9.8637  -9.6968  -9.3392  -9.1145  -8.6536
    -8.6267  -8.5564  -8.3921  -8.3603  -8.1649  -8.1125  -8.0666  -8.0537
    -7.6930  -7.6269  -7.4978  -7.4774  -7.3460  -7.1735  -7.0711  -6.8518
    -6.6251  -6.3794  -6.1694  -6.1614  -5.9636  -5.9321  -5.7871  -5.7356
    -5.4546  -5.3879  -5.1996  -5.0357  -4.4339  -4.3426  -4.0816  -3.7602
    -1.4431   0.3865   0.8062   0.9192   1.0235   1.1298   1.2171   1.2613
     1.3661   1.4058   1.5657   1.7307   1.7700   1.8857   1.9229   2.0620
     2.1139   2.1305   2.1652   2.2095   2.3153   2.3448

          k = 0.5000-0.0962 0.0000 ( 59291 PWs)   bands (ev):

   -68.6886 -68.6783 -40.3710 -40.2684 -40.1232 -40.1130 -40.0457 -40.0354
   -21.1164 -20.9228 -20.7200 -20.1616 -19.8064 -19.4716 -19.3258 -19.1713
   -19.0179 -18.7825 -18.6328 -18.5520 -18.1387 -18.1085 -17.9208 -17.7252
   -12.3502 -12.1182 -12.0459 -11.9146 -11.6978 -11.6461 -11.5581 -10.9458
   -10.8910 -10.6250 -10.5289  -9.8612  -9.6973  -9.3401  -9.1138  -8.6447
    -8.6274  -8.5542  -8.3978  -8.3851  -8.1628  -8.0967  -8.0812  -8.0403
    -7.6881  -7.6275  -7.4968  -7.4789  -7.3408  -7.1752  -7.0720  -6.8500
    -6.6255  -6.3883  -6.1825  -6.1605  -5.9507  -5.9313  -5.7862  -5.7389
    -5.4560  -5.3910  -5.1758  -5.0478  -4.4133  -4.3705  -4.0778  -3.7593
    -1.4200   0.1473   0.8179   0.9723   1.0411   1.1490   1.1936   1.2622
     1.4008   1.5877   1.6804   1.7796   1.8798   1.9055   1.9729   1.9912
     2.0279   2.0932   2.1982   2.2477   2.3079   2.3585

          k =-0.3333-0.3849 0.0000 ( 59291 PWs)   bands (ev):

   -68.6886 -68.6783 -40.3710 -40.2684 -40.1232 -40.1130 -40.0457 -40.0354
   -21.1175 -20.9197 -20.7222 -20.1611 -19.8092 -19.4689 -19.3197 -19.1758
   -19.0212 -18.7800 -18.6343 -18.5516 -18.1414 -18.1049 -17.9210 -17.7255
   -12.3517 -12.1150 -12.0489 -11.9125 -11.6857 -11.6601 -11.5572 -10.9456
   -10.8909 -10.6243 -10.5294  -9.8617  -9.6974  -9.3397  -9.1151  -8.6477
    -8.6258  -8.5560  -8.3940  -8.3764  -8.1644  -8.1029  -8.0663  -8.0568
    -7.6884  -7.6259  -7.5043  -7.4719  -7.3394  -7.1753  -7.0728  -6.8578
    -6.6232  -6.3808  -6.1689  -6.1627  -5.9618  -5.9301  -5.7865  -5.7467
    -5.4557  -5.3855  -5.1770  -5.0487  -4.4162  -4.3668  -4.0776  -3.7597
    -1.4280   0.2139   0.8052   0.9643   1.0311   1.1466   1.2228   1.2895
     1.3679   1.4956   1.6851   1.7558   1.8570   1.8995   1.9444   2.0274
     2.0681   2.0871   2.1359   2.2104   2.3196   2.3543

          k = 0.5000 0.0962 0.0000 ( 59291 PWs)   bands (ev):

   -68.6886 -68.6783 -40.3710 -40.2684 -40.1232 -40.1130 -40.0457 -40.0354
   -21.1164 -20.9228 -20.7200 -20.1616 -19.8064 -19.4716 -19.3258 -19.1713
   -19.0179 -18.7825 -18.6328 -18.5520 -18.1387 -18.1085 -17.9208 -17.7252
   -12.3502 -12.1182 -12.0459 -11.9146 -11.6977 -11.6461 -11.5581 -10.9457
   -10.8910 -10.6250 -10.5289  -9.8612  -9.6973  -9.3400  -9.1138  -8.6447
    -8.6274  -8.5542  -8.3978  -8.3851  -8.1628  -8.0967  -8.0812  -8.0403
    -7.6882  -7.6275  -7.4969  -7.4789  -7.3408  -7.1753  -7.0719  -6.8500
    -6.6255  -6.3883  -6.1825  -6.1604  -5.9507  -5.9313  -5.7863  -5.7389
    -5.4560  -5.3910  -5.1758  -5.0478  -4.4133  -4.3705  -4.0778  -3.7593
    -1.4200   0.1473   0.8179   0.9723   1.0412   1.1490   1.1936   1.2622
     1.4007   1.5877   1.6804   1.7796   1.8797   1.9055   1.9730   1.9913
     2.0279   2.0932   2.1983   2.2477   2.3080   2.3586

          k =-0.3333 0.3849 0.0000 ( 59291 PWs)   bands (ev):

   -68.6886 -68.6783 -40.3710 -40.2684 -40.1232 -40.1130 -40.0457 -40.0354
   -21.1175 -20.9197 -20.7222 -20.1611 -19.8092 -19.4689 -19.3197 -19.1758
   -19.0212 -18.7800 -18.6343 -18.5516 -18.1414 -18.1049 -17.9210 -17.7255
   -12.3516 -12.1150 -12.0489 -11.9125 -11.6857 -11.6601 -11.5572 -10.9456
   -10.8909 -10.6243 -10.5294  -9.8617  -9.6974  -9.3397  -9.1151  -8.6477
    -8.6258  -8.5559  -8.3941  -8.3764  -8.1644  -8.1029  -8.0662  -8.0568
    -7.6884  -7.6258  -7.5043  -7.4719  -7.3394  -7.1752  -7.0729  -6.8578
    -6.6232  -6.3808  -6.1689  -6.1628  -5.9618  -5.9302  -5.7865  -5.7467
    -5.4556  -5.3854  -5.1770  -5.0487  -4.4162  -4.3668  -4.0776  -3.7597
    -1.4280   0.2138   0.8052   0.9643   1.0311   1.1466   1.2228   1.2895
     1.3679   1.4955   1.6851   1.7558   1.8570   1.8996   1.9445   2.0273
     2.0680   2.0872   2.1359   2.2104   2.3202   2.3541

          k =-0.1667-0.0962 0.0000 ( 59226 PWs)   bands (ev):

   -68.6886 -68.6782 -40.3710 -40.2684 -40.1232 -40.1129 -40.0457 -40.0354
   -21.3160 -20.5387 -20.3507 -20.3382 -19.9940 -19.9804 -19.8077 -18.7354
   -18.7215 -18.3776 -18.3715 -18.3564 -18.2680 -18.2659 -18.0810 -18.0710
   -12.5094 -12.5077 -12.4115 -11.5866 -11.5783 -11.4278 -11.4261 -10.9301
   -10.9263  -9.9341  -9.9286  -9.6790  -9.3787  -9.3758  -9.2334  -9.2304
    -9.0457  -9.0439  -8.9125  -8.3277  -8.3232  -7.9052  -7.9031  -7.8676
    -7.8474  -7.7740  -7.6028  -7.5730  -7.1234  -7.0823  -6.9631  -6.8925
    -6.8880  -6.8452  -6.5360  -6.5303  -6.2611  -5.3428  -5.3054  -5.1463
    -5.0687  -4.8010  -4.7905  -4.7426  -4.6055  -4.5991  -4.3460  -4.3229
    -1.4612   0.4090   0.8091   0.9606   1.0589   1.1433   1.2027   1.3052
     1.5015   1.5265   1.6046   1.6649   1.7853   1.8181   1.8701   1.9347
     2.0258   2.0677   2.1208   2.1390   2.2600   2.3523

          k =-0.0000-0.1925 0.0000 ( 59226 PWs)   bands (ev):

   -68.6886 -68.6782 -40.3710 -40.2684 -40.1232 -40.1130 -40.0457 -40.0354
   -21.3161 -20.5331 -20.3547 -20.3442 -19.9879 -19.9782 -19.8116 -18.7310
   -18.7215 -18.4074 -18.3640 -18.3544 -18.2577 -18.2546 -18.0832 -18.0744
   -12.5172 -12.5001 -12.4112 -11.5867 -11.5793 -11.4351 -11.4159 -10.9308
   -10.9276  -9.9320  -9.9307  -9.6789  -9.3835  -9.3695  -9.2334  -9.2324
    -9.0453  -9.0437  -8.9129  -8.3264  -8.3240  -7.9060  -7.9001  -7.8555
    -7.8446  -7.7760  -7.6147  -7.5888  -7.1015  -7.0824  -6.9615  -6.8930
    -6.8890  -6.8546  -6.5351  -6.5307  -6.2615  -5.3299  -5.3102  -5.1467
    -5.0682  -4.8476  -4.7719  -4.7445  -4.5952  -4.5791  -4.3457  -4.3314
    -1.4682   0.5467   0.7661   0.9475   1.0630   1.1429   1.2258   1.2427
     1.4752   1.4801   1.5338   1.6015   1.7205   1.8148   1.9145   2.0023
     2.0593   2.0670   2.1457   2.1467   2.1994   2.3375

          k = 0.5000-0.8660 0.0000 ( 59292 PWs)   bands (ev):

   -68.6886 -68.6783 -40.3710 -40.2684 -40.1232 -40.1130 -40.0457 -40.0354
   -21.0517 -21.0502 -20.4751 -20.4631 -19.4309 -19.4260 -19.4130 -19.4100
   -18.9936 -18.9922 -18.3230 -18.3214 -18.3207 -18.3189 -17.7983 -17.7873
   -12.0709 -12.0687 -12.0681 -12.0672 -11.8841 -11.8747 -11.3322 -11.3309
   -10.2406 -10.2333 -10.1387 -10.1376 -10.1300 -10.1292  -8.5721  -8.5509
    -8.5493  -8.5485  -8.5471  -8.5379  -7.8694  -7.8686  -7.8609  -7.8598
    -7.8276  -7.8202  -7.7751  -7.7438  -7.4929  -7.4907  -6.6172  -6.6090
    -6.3432  -6.3262  -6.2946  -6.2873  -6.1926  -6.1905  -5.7017  -5.6915
    -5.5476  -5.5467  -4.7130  -4.7075  -4.6936  -4.6885  -3.8831  -3.8576
    -1.4200   0.1455   0.8194   0.9954   1.0565   1.1495   1.2466   1.3881
     1.5024   1.5567   1.5716   1.7110   1.7624   1.8732   1.9068   1.9395
     1.9811   2.0919   2.1733   2.1903   2.3234   2.3568

          k =-1.0000 0.0000 0.0000 ( 59292 PWs)   bands (ev):

   -68.6886 -68.6783 -40.3710 -40.2684 -40.1232 -40.1130 -40.0457 -40.0354
   -21.0789 -21.0198 -20.4770 -20.4665 -19.4330 -19.4286 -19.4132 -19.3984
   -19.0167 -18.9702 -18.3874 -18.3128 -18.3049 -18.2802 -17.7980 -17.7896
   -12.1184 -12.0703 -12.0491 -12.0334 -11.8842 -11.8748 -11.3544 -11.3104
   -10.2461 -10.2444 -10.1340 -10.1339 -10.1270 -10.1265  -8.6126  -8.5858
    -8.5535  -8.5336  -8.5177  -8.4889  -7.8805  -7.8719  -7.8647  -7.8628
    -7.8152  -7.8141  -7.7777  -7.7551  -7.5192  -7.4667  -6.6143  -6.6089
    -6.3434  -6.3279  -6.2937  -6.2702  -6.2134  -6.1729  -5.7298  -5.6670
    -5.5710  -5.5233  -4.8107  -4.6869  -4.6704  -4.6386  -3.8781  -3.8650
    -1.4504   0.5114   0.8194   0.9176   1.0233   1.1092   1.2099   1.2684
     1.3420   1.4765   1.6064   1.6389   1.6708   1.7686   1.8603   1.9260
     2.0789   2.1145   2.1782   2.1813   2.3428   2.3682

     the Fermi energy is    -1.1592 ev

!    total energy              =   -1133.82800252 Ry

     total all-electron energy =     -6753.503706 Ry
     estimated scf accuracy    <       0.00000010 Ry
     smearing contrib. (-TS)   =      -0.00000000 Ry
     internal energy E=F+TS    =   -1133.82800252 Ry

     The total energy is F=E-TS. E is the sum of the following terms:
     one-electron contribution =   -3953.89526230 Ry
     hartree contribution      =    2005.10773887 Ry
     xc contribution           =    -186.02007272 Ry
     ewald contribution        =    1360.35636219 Ry
     DFT-D3 Dispersion         =      -0.13354125 Ry
     one-center paw contrib.   =    -359.24322730 Ry

     total magnetization       =    10.00 Bohr mag/cell
     absolute magnetization    =    10.01 Bohr mag/cell

     convergence has been achieved in  14 iterations

     Writing output data file ./mytmp/Crdimer0.1405-0.1.save/
 
     init_run     :     18.46s CPU     19.87s WALL (       1 calls)
     electrons    :    473.25s CPU    507.34s WALL (       1 calls)

     Called by init_run:
     wfcinit      :     13.79s CPU     14.71s WALL (       1 calls)
     potinit      :      1.46s CPU      1.59s WALL (       1 calls)
     hinit0       :      1.52s CPU      1.59s WALL (       1 calls)

     Called by electrons:
     c_bands      :    377.01s CPU    401.63s WALL (      14 calls)
     sum_band     :     74.87s CPU     80.33s WALL (      14 calls)
     v_of_rho     :      4.59s CPU      4.97s WALL (      15 calls)
     newd         :      9.17s CPU     12.45s WALL (      15 calls)
     PAW_pot      :      6.89s CPU      7.47s WALL (      15 calls)
     mix_rho      :      0.97s CPU      1.00s WALL (      14 calls)

     Called by c_bands:
     init_us_2    :      5.02s CPU      5.08s WALL (     870 calls)
     cegterg      :    364.65s CPU    389.19s WALL (     420 calls)

     Called by *egterg:
     cdiaghg      :     23.20s CPU     37.56s WALL (    2633 calls)
     h_psi        :    236.17s CPU    245.31s WALL (    2663 calls)
     s_psi        :     26.47s CPU     26.57s WALL (    2663 calls)
     g_psi        :      0.68s CPU      0.70s WALL (    2213 calls)

     Called by h_psi:
     h_psi:calbec :     27.26s CPU     27.96s WALL (    2663 calls)
     vloc_psi     :    180.14s CPU    188.40s WALL (    2663 calls)
     add_vuspsi   :     26.70s CPU     26.86s WALL (    2663 calls)

     General routines
     calbec       :     36.65s CPU     37.52s WALL (    3083 calls)
     fft          :      4.30s CPU      5.21s WALL (     369 calls)
     ffts         :      0.11s CPU      0.12s WALL (      58 calls)
     fftw         :    186.87s CPU    195.45s WALL (  245784 calls)
     interpolate  :      0.41s CPU      0.44s WALL (      30 calls)
 
     Parallel routines
     fft_scatt_xy :     29.95s CPU     31.13s WALL (  246211 calls)
     fft_scatt_yz :     74.37s CPU     79.20s WALL (  246211 calls)
 
     PWSCF        :   8m13.71s CPU   8m51.31s WALL

 
   This run was terminated on:  11:14:56   2Apr2021            

=------------------------------------------------------------------------------=
   JOB DONE.
=------------------------------------------------------------------------------=
