
     Program PWSCF v.6.7MaX starts on  2Apr2021 at 13:22: 3 

     This program is part of the open-source Quantum ESPRESSO suite
     for quantum simulation of materials; please cite
         "P. Giannozzi et al., J. Phys.:Condens. Matter 21 395502 (2009);
         "P. Giannozzi et al., J. Phys.:Condens. Matter 29 465901 (2017);
          URL http://www.quantum-espresso.org", 
     in publications or presentations arising from this work. More details at
     http://www.quantum-espresso.org/quote

     Parallel version (MPI), running on    48 processors

     MPI processes distributed on     1 nodes
     R & G space division:  proc/nbgrp/npool/nimage =      48
     Reading input from Crdimer0.1415-0.4.scf.in

     Current dimensions of program PWSCF are:
     Max number of different atomic species (ntypx) = 10
     Max number of k-points (npk) =  40000
     Max angular momentum in pseudopotentials (lmaxx) =  3
     file N.pbe-n-kjpaw_psl.1.0.0.UPF: wavefunction(s)  2S renormalized
     file Cr.pbe-spn-kjpaw_psl.1.0.0.UPF: wavefunction(s)  3S 3P 3D renormalized
     file Cr.pbe-spn-kjpaw_psl.1.0.0.UPF: wavefunction(s)  3S 3P 3D renormalized

     --------------------------------------------
     Parameters for DFT-D3 Dispersion Correction:
     --------------------------------------------
       Reference C6 values for interpolation: 

         atom   Coordination number   C6
         B          0.000           214.36
         B          0.971           150.74
         B          1.944           106.23
         B          2.913            62.89
         B          4.586            56.06
         N          0.000            50.54
         N          0.994            44.25
         N          2.014            39.35
         N          2.990            31.16
         Cr1        0.000          1381.48
         Cr1        1.827           571.38
         Cr1       10.619           306.69
         Cr2        0.000          1381.48
         Cr2        1.827           571.38
         Cr2       10.619           306.69

       Values used:

         atom   Coordination number  R0_AB[au]  C6      C8
         B          3.337            3.039     62.89   2505.96
         B          3.336            3.039     62.89   2505.98
         B          3.336            3.039     62.89   2505.99
         B          3.335            3.039     62.89   2506.01
         B          3.354            3.039     62.88   2505.53
         B          3.335            3.039     62.89   2506.00
         N          3.135            2.478     31.22    688.69
         N          3.143            2.478     31.21    688.62
         N          3.135            2.478     31.22    688.68
         N          3.134            2.478     31.22    688.70
         N          3.151            2.478     31.21    688.54
         N          3.135            2.478     31.22    688.69
         N          3.147            2.478     31.21    688.58
         N          3.134            2.478     31.22    688.70
         N          3.134            2.478     31.22    688.70
         B          3.351            3.039     62.88   2505.60
         B          3.336            3.039     62.89   2505.98
         B          3.335            3.039     62.89   2506.00
         B          3.354            3.039     62.88   2505.53
         B          3.337            3.039     62.89   2505.96
         B          3.351            3.039     62.88   2505.60
         N          3.147            2.478     31.21    688.58
         B          3.336            3.039     62.89   2505.99
         B          3.356            3.039     62.88   2505.47
         B          3.336            3.039     62.89   2506.00
         N          3.135            2.478     31.22    688.69
         N          3.143            2.478     31.21    688.62
         N          3.134            2.478     31.22    688.70
         N          3.134            2.478     31.22    688.70
         N          3.135            2.478     31.22    688.68
         N          3.134            2.478     31.22    688.70
         B          3.336            3.039     62.89   2506.00
         Cr1        0.726            3.252   1319.39 121765.19
         Cr2        0.726            3.252   1319.39 121765.18

         Molecular C6 ( Ry / a.u.^6 ) =     78451.03


     Subspace diagonalization in iterative solution of the eigenvalue problem:
     one sub-group per band group will be used
     scalapack distributed-memory algorithm (size of sub-group:  6*  6 procs)

 
     Parallelization info
     --------------------
     sticks:   dense  smooth     PW     G-vecs:    dense   smooth      PW
     Min         235      98     26                36277     9874    1408
     Max         236      99     27                36282     9883    1425
     Sum       11311    4741   1285              1741401   474235   68095
 


     bravais-lattice index     =            4
     lattice parameter (alat)  =      18.9275  a.u.
     unit-cell volume          =   10553.3021 (a.u.)^3
     number of atoms/cell      =           34
     number of atomic types    =            4
     number of electrons       =       156.00
     number of Kohn-Sham states=           94
     kinetic-energy cutoff     =      48.0000  Ry
     charge density cutoff     =     457.0000  Ry
     scf convergence threshold =      1.0E-07
     mixing beta               =       0.5000
     number of iterations used =            8  plain     mixing
     Exchange-correlation= SLA  PW   PBX  PBC
                           (   1   4   3   4   0   0   0)

     celldm(1)=  18.927497  celldm(2)=   0.000000  celldm(3)=   1.797125
     celldm(4)=   0.000000  celldm(5)=   0.000000  celldm(6)=   0.000000

     crystal axes: (cart. coord. in units of alat)
               a(1) = (   1.000000   0.000000   0.000000 )  
               a(2) = (  -0.500000   0.866025   0.000000 )  
               a(3) = (   0.000000   0.000000   1.797125 )  

     reciprocal axes: (cart. coord. in units 2 pi/alat)
               b(1) = (  1.000000  0.577350  0.000000 )  
               b(2) = (  0.000000  1.154701  0.000000 )  
               b(3) = (  0.000000  0.000000  0.556444 )  


     PseudoPot. # 1 for B  read from file:
     /home/sf05/q-e-qe-6.7MaX-Release/pseudo/B.pbe-n-kjpaw_psl.1.0.0.UPF
     MD5 check sum: d9c678ba5d3b2fd7b74e61139c9288d8
     Pseudo is Projector augmented-wave + core cor, Zval =  3.0
     Generated using "atomic" code by A. Dal Corso  v.5.1.2
     Shape of augmentation charge: PSQ
     Using radial grid of 1059 points,  4 beta functions with: 
                l(1) =   0
                l(2) =   0
                l(3) =   1
                l(4) =   1
     Q(r) pseudized with 0 coefficients 


     PseudoPot. # 2 for N  read from file:
     /home/sf05/q-e-qe-6.7MaX-Release/pseudo/N.pbe-n-kjpaw_psl.1.0.0.UPF
     MD5 check sum: e0e4e94a9c4025c5b51bd7d8793849bd
     Pseudo is Projector augmented-wave + core cor, Zval =  5.0
     Generated using "atomic" code by A. Dal Corso  v.5.1.2
     Shape of augmentation charge: PSQ
     Using radial grid of 1085 points,  4 beta functions with: 
                l(1) =   0
                l(2) =   0
                l(3) =   1
                l(4) =   1
     Q(r) pseudized with 0 coefficients 


     PseudoPot. # 3 for Cr read from file:
     /home/sf05/q-e-qe-6.7MaX-Release/pseudo/Cr.pbe-spn-kjpaw_psl.1.0.0.UPF
     MD5 check sum: 198f1a2427a48552563eee314eba32ba
     Pseudo is Projector augmented-wave + core cor, Zval = 14.0
     Generated using &quot;atomic&quot; code by A. Dal Corso  v.6.3
     Shape of augmentation charge: PSQ
     Using radial grid of 1183 points,  6 beta functions with: 
                l(1) =   0
                l(2) =   0
                l(3) =   1
                l(4) =   1
                l(5) =   2
                l(6) =   2
     Q(r) pseudized with 0 coefficients 


     PseudoPot. # 4 for Cr read from file:
     /home/sf05/q-e-qe-6.7MaX-Release/pseudo/Cr.pbe-spn-kjpaw_psl.1.0.0.UPF
     MD5 check sum: 198f1a2427a48552563eee314eba32ba
     Pseudo is Projector augmented-wave + core cor, Zval = 14.0
     Generated using &quot;atomic&quot; code by A. Dal Corso  v.6.3
     Shape of augmentation charge: PSQ
     Using radial grid of 1183 points,  6 beta functions with: 
                l(1) =   0
                l(2) =   0
                l(3) =   1
                l(4) =   1
                l(5) =   2
                l(6) =   2
     Q(r) pseudized with 0 coefficients 


     atomic species   valence    mass     pseudopotential
        B              3.00    10.81100     B ( 1.00)
        N              5.00    14.00674     N ( 1.00)
        Cr1           14.00    51.99610     Cr( 1.00)
        Cr2           14.00    51.99610     Cr( 1.00)

     Starting magnetic structure 
     atomic species   magnetization
        B            0.000
        N            0.000
        Cr1          1.000
        Cr2          1.000

     No symmetry found



   Cartesian axes

     site n.     atom                  positions (alat units)
         1           B   tau(   1) = (  -0.1250000   0.2165064   0.8985623  )
         2           B   tau(   2) = (   0.3750000   0.6495191   0.8985623  )
         3           B   tau(   3) = (   0.2500000   0.0000000   0.8985623  )
         4           B   tau(   4) = (   0.7500000   0.0000000   0.8985623  )
         5           B   tau(   5) = (   0.1250000   0.2165064   0.8985623  )
         6           B   tau(   6) = (  -0.3750000   0.6495191   0.8985623  )
         7           N   tau(   7) = (   0.7500005   0.2886748   0.8985623  )
         8           N   tau(   8) = (   0.3750005   0.5051812   0.8985623  )
         9           N   tau(   9) = (   0.3750005   0.0721685   0.8985623  )
        10           N   tau(  10) = (   0.6250005   0.0721685   0.8985623  )
        11           N   tau(  11) = (   0.2500005   0.2886748   0.8985623  )
        12           N   tau(  12) = (   0.6250005   0.5051812   0.8985623  )
        13           N   tau(  13) = (   0.0000005   0.2886748   0.8985623  )
        14           N   tau(  14) = (   0.2500005   0.7216875   0.8985623  )
        15           N   tau(  15) = (  -0.2499995   0.7216875   0.8985623  )
        16           B   tau(  16) = (   0.0000000   0.4330127   0.8985623  )
        17           B   tau(  17) = (   0.1250000   0.6495191   0.8985623  )
        18           B   tau(  18) = (  -0.1250000   0.6495191   0.8985623  )
        19           B   tau(  19) = (   0.3750000   0.2165064   0.8985623  )
        20           B   tau(  20) = (   0.6250000   0.2165064   0.8985623  )
        21           B   tau(  21) = (   0.5000000   0.4330127   0.8985623  )
        22           N   tau(  22) = (   0.5000005   0.2886748   0.8985623  )
        23           B   tau(  23) = (  -0.2500000   0.4330127   0.8985623  )
        24           B   tau(  24) = (   0.2500000   0.4330127   0.8985623  )
        25           B   tau(  25) = (   0.5000000   0.0000000   0.8985623  )
        26           N   tau(  26) = (  -0.1249995   0.5051812   0.8985623  )
        27           N   tau(  27) = (   0.1250005   0.5051812   0.8985623  )
        28           N   tau(  28) = (   0.0000005   0.7216875   0.8985623  )
        29           N   tau(  29) = (   0.5000005   0.7216875   0.8985623  )
        30           N   tau(  30) = (   0.1250005   0.0721685   0.8985623  )
        31           N   tau(  31) = (   0.8750005   0.0721685   0.8985623  )
        32           B   tau(  32) = (   0.0000000   0.0000000   0.8985623  )
        33           Cr1 tau(  33) = (   0.3915000   0.3464102   1.2040735  )
        34           Cr2 tau(  34) = (   0.1085000   0.3464102   1.2040735  )

     number of k points=    15  Gaussian smearing, width (Ry)=  0.0000
                       cart. coord. in units 2pi/alat
        k(    1) = (   0.1666667   0.2886751   0.0000000), wk =   0.0740741
        k(    2) = (   0.1666667  -0.4811252   0.0000000), wk =   0.0740741
        k(    3) = (   0.1666667  -0.0962250   0.0000000), wk =   0.0740741
        k(    4) = (  -0.5000000  -0.8660254   0.0000000), wk =   0.0370370
        k(    5) = (  -0.1666667   0.2886751   0.0000000), wk =   0.0740741
        k(    6) = (   0.3333333   0.0000000   0.0000000), wk =   0.0740741
        k(    7) = (  -0.1666667  -0.4811252   0.0000000), wk =   0.0740741
        k(    8) = (   0.5000000  -0.0962250   0.0000000), wk =   0.0740741
        k(    9) = (  -0.3333333  -0.3849002   0.0000000), wk =   0.0740741
        k(   10) = (   0.5000000   0.0962250   0.0000000), wk =   0.0740741
        k(   11) = (  -0.3333333   0.3849002   0.0000000), wk =   0.0740741
        k(   12) = (  -0.1666667  -0.0962250   0.0000000), wk =   0.0740741
        k(   13) = (  -0.0000000  -0.1924501   0.0000000), wk =   0.0740741
        k(   14) = (   0.5000000  -0.8660254   0.0000000), wk =   0.0370370
        k(   15) = (  -1.0000000   0.0000000   0.0000000), wk =   0.0370370

     Dense  grid:  1741401 G-vectors     FFT dimensions: ( 135, 135, 240)

     Smooth grid:   474235 G-vectors     FFT dimensions: (  90,  90, 160)

     Estimated max dynamical RAM per process >     218.62 MB

     Estimated total dynamical RAM >      10.25 GB
     Generating pointlists ...
     new r_m :   0.0595 (alat units)  1.1269 (a.u.) for type    1
     new r_m :   0.0595 (alat units)  1.1269 (a.u.) for type    2
     new r_m :   0.1167 (alat units)  2.2095 (a.u.) for type    3
     new r_m :   0.1167 (alat units)  2.2095 (a.u.) for type    4

     Initial potential from superposition of free atoms

     starting charge  155.99382, renormalised to  156.00000

     negative rho (up, down):  6.717E-03 4.655E-04
     Starting wfcs are  148 randomized atomic wfcs
     Checking if some PAW data can be deallocated... 

     total cpu time spent up to now is       19.5 secs

     Self-consistent Calculation

     iteration #  1     ecut=    48.00 Ry     beta= 0.50
     Davidson diagonalization with overlap
     ethr =  1.00E-02,  avg # of iterations =  2.8

     negative rho (up, down):  4.902E-03 2.917E-03

     total cpu time spent up to now is       59.9 secs

     total energy              =   -1130.73567237 Ry
     estimated scf accuracy    <      11.36822565 Ry

     total magnetization       =    12.00 Bohr mag/cell
     absolute magnetization    =    12.12 Bohr mag/cell

     iteration #  2     ecut=    48.00 Ry     beta= 0.50
     Davidson diagonalization with overlap
     ethr =  7.29E-03,  avg # of iterations =  2.7

     negative rho (up, down):  8.866E-03 7.954E-03

     total cpu time spent up to now is       97.1 secs

     total energy              =   -1132.92799639 Ry
     estimated scf accuracy    <       3.76341839 Ry

     total magnetization       =    10.00 Bohr mag/cell
     absolute magnetization    =    10.08 Bohr mag/cell

     iteration #  3     ecut=    48.00 Ry     beta= 0.50
     Davidson diagonalization with overlap
     ethr =  2.41E-03,  avg # of iterations =  7.1

     negative rho (up, down):  4.048E-03 3.996E-03

     total cpu time spent up to now is      135.0 secs

     total energy              =   -1133.56501427 Ry
     estimated scf accuracy    <       0.83472739 Ry

     total magnetization       =    11.78 Bohr mag/cell
     absolute magnetization    =    11.84 Bohr mag/cell

     iteration #  4     ecut=    48.00 Ry     beta= 0.50
     Davidson diagonalization with overlap
     ethr =  5.35E-04,  avg # of iterations =  6.5

     negative rho (up, down):  6.966E-03 7.614E-03

     total cpu time spent up to now is      171.0 secs

     total energy              =   -1133.78707918 Ry
     estimated scf accuracy    <       0.43913257 Ry

     total magnetization       =    10.00 Bohr mag/cell
     absolute magnetization    =    10.02 Bohr mag/cell

     iteration #  5     ecut=    48.00 Ry     beta= 0.50
     Davidson diagonalization with overlap
     ethr =  2.81E-04,  avg # of iterations =  6.5

     negative rho (up, down):  4.803E-03 5.108E-03

     total cpu time spent up to now is      208.1 secs

     total energy              =   -1133.81921386 Ry
     estimated scf accuracy    <       0.02644034 Ry

     total magnetization       =    10.00 Bohr mag/cell
     absolute magnetization    =    10.02 Bohr mag/cell

     iteration #  6     ecut=    48.00 Ry     beta= 0.50
     Davidson diagonalization with overlap
     c_bands:  1 eigenvalues not converged
     ethr =  1.69E-05,  avg # of iterations = 12.6

     negative rho (up, down):  3.799E-03 3.913E-03

     total cpu time spent up to now is      258.1 secs

     total energy              =   -1133.82213204 Ry
     estimated scf accuracy    <       0.03214519 Ry

     total magnetization       =    10.00 Bohr mag/cell
     absolute magnetization    =    10.02 Bohr mag/cell

     iteration #  7     ecut=    48.00 Ry     beta= 0.50
     Davidson diagonalization with overlap
     ethr =  1.69E-05,  avg # of iterations =  6.1

     negative rho (up, down):  3.449E-03 3.871E-03

     total cpu time spent up to now is      295.4 secs

     total energy              =   -1133.82807813 Ry
     estimated scf accuracy    <       0.00213906 Ry

     total magnetization       =    10.00 Bohr mag/cell
     absolute magnetization    =    10.02 Bohr mag/cell

     iteration #  8     ecut=    48.00 Ry     beta= 0.50
     Davidson diagonalization with overlap
     ethr =  1.37E-06,  avg # of iterations =  9.1

     negative rho (up, down):  3.219E-03 3.749E-03

     total cpu time spent up to now is      338.0 secs

     total energy              =   -1133.82874590 Ry
     estimated scf accuracy    <       0.00042610 Ry

     total magnetization       =    10.00 Bohr mag/cell
     absolute magnetization    =    10.01 Bohr mag/cell

     iteration #  9     ecut=    48.00 Ry     beta= 0.50
     Davidson diagonalization with overlap
     ethr =  2.73E-07,  avg # of iterations =  2.7

     negative rho (up, down):  3.173E-03 3.756E-03

     total cpu time spent up to now is      368.3 secs

     total energy              =   -1133.82889661 Ry
     estimated scf accuracy    <       0.00006757 Ry

     total magnetization       =    10.00 Bohr mag/cell
     absolute magnetization    =    10.01 Bohr mag/cell

     iteration # 10     ecut=    48.00 Ry     beta= 0.50
     Davidson diagonalization with overlap
     ethr =  4.33E-08,  avg # of iterations =  4.5

     negative rho (up, down):  3.148E-03 3.762E-03

     total cpu time spent up to now is      408.3 secs

     total energy              =   -1133.82896096 Ry
     estimated scf accuracy    <       0.00002006 Ry

     total magnetization       =    10.00 Bohr mag/cell
     absolute magnetization    =    10.01 Bohr mag/cell

     iteration # 11     ecut=    48.00 Ry     beta= 0.50
     Davidson diagonalization with overlap
     ethr =  1.29E-08,  avg # of iterations =  4.1

     negative rho (up, down):  3.144E-03 3.780E-03

     total cpu time spent up to now is      440.2 secs

     total energy              =   -1133.82898379 Ry
     estimated scf accuracy    <       0.00000594 Ry

     total magnetization       =    10.00 Bohr mag/cell
     absolute magnetization    =    10.01 Bohr mag/cell

     iteration # 12     ecut=    48.00 Ry     beta= 0.50
     Davidson diagonalization with overlap
     ethr =  3.81E-09,  avg # of iterations =  4.5

     negative rho (up, down):  3.140E-03 3.797E-03

     total cpu time spent up to now is      474.4 secs

     total energy              =   -1133.82899317 Ry
     estimated scf accuracy    <       0.00000379 Ry

     total magnetization       =    10.00 Bohr mag/cell
     absolute magnetization    =    10.01 Bohr mag/cell

     iteration # 13     ecut=    48.00 Ry     beta= 0.50
     Davidson diagonalization with overlap
     ethr =  2.43E-09,  avg # of iterations =  4.7

     negative rho (up, down):  3.136E-03 3.800E-03

     total cpu time spent up to now is      507.3 secs

     total energy              =   -1133.82899744 Ry
     estimated scf accuracy    <       0.00000029 Ry

     total magnetization       =    10.00 Bohr mag/cell
     absolute magnetization    =    10.01 Bohr mag/cell

     iteration # 14     ecut=    48.00 Ry     beta= 0.50
     Davidson diagonalization with overlap
     ethr =  1.86E-10,  avg # of iterations =  5.0

     negative rho (up, down):  3.134E-03 3.801E-03
 
     Magnetic moment per site:
     atom:    1    charge:    0.8808    magn:    0.0008    constr:    0.0000
     atom:    2    charge:    0.8802    magn:    0.0006    constr:    0.0000
     atom:    3    charge:    0.8800    magn:    0.0001    constr:    0.0000
     atom:    4    charge:    0.8804    magn:    0.0001    constr:    0.0000
     atom:    5    charge:    0.8801    magn:    0.0002    constr:    0.0000
     atom:    6    charge:    0.8804    magn:    0.0001    constr:    0.0000
     atom:    7    charge:    2.8610    magn:    0.0004    constr:    0.0000
     atom:    8    charge:    2.8607    magn:    0.0043    constr:    0.0000
     atom:    9    charge:    2.8608    magn:    0.0016    constr:    0.0000
     atom:   10    charge:    2.8609    magn:    0.0004    constr:    0.0000
     atom:   11    charge:    2.8605    magn:    0.0072    constr:    0.0000
     atom:   12    charge:    2.8610    magn:    0.0008    constr:    0.0000
     atom:   13    charge:    2.8596    magn:    0.0052    constr:    0.0000
     atom:   14    charge:    2.8598    magn:    0.0003    constr:    0.0000
     atom:   15    charge:    2.8600    magn:    0.0000    constr:    0.0000
     atom:   16    charge:    0.8805    magn:   -0.0000    constr:    0.0000
     atom:   17    charge:    0.8799    magn:    0.0006    constr:    0.0000
     atom:   18    charge:    0.8800    magn:    0.0001    constr:    0.0000
     atom:   19    charge:    0.8796    magn:    0.0002    constr:    0.0000
     atom:   20    charge:    0.8802    magn:    0.0008    constr:    0.0000
     atom:   21    charge:    0.8802    magn:   -0.0000    constr:    0.0000
     atom:   22    charge:    2.8609    magn:    0.0052    constr:    0.0000
     atom:   23    charge:    0.8804    magn:    0.0001    constr:    0.0000
     atom:   24    charge:    0.8789    magn:   -0.0002    constr:    0.0000
     atom:   25    charge:    0.8799    magn:    0.0001    constr:    0.0000
     atom:   26    charge:    2.8599    magn:    0.0008    constr:    0.0000
     atom:   27    charge:    2.8595    magn:    0.0043    constr:    0.0000
     atom:   28    charge:    2.8598    magn:    0.0002    constr:    0.0000
     atom:   29    charge:    2.8596    magn:    0.0002    constr:    0.0000
     atom:   30    charge:    2.8594    magn:    0.0016    constr:    0.0000
     atom:   31    charge:    2.8596    magn:    0.0004    constr:    0.0000
     atom:   32    charge:    0.8802    magn:    0.0001    constr:    0.0000
     atom:   33    charge:   12.5175    magn:    4.2378    constr:    0.0000
     atom:   34    charge:   12.5174    magn:    4.2377    constr:    0.0000

     total cpu time spent up to now is      541.5 secs

     End of self-consistent calculation

 ------ SPIN UP ------------


          k = 0.1667 0.2887 0.0000 ( 59267 PWs)   bands (ev):

   -72.8789 -72.8708 -44.4292 -44.3487 -44.2821 -44.2741 -44.2519 -44.2437
   -21.2511 -20.6651 -20.6595 -20.1131 -20.0959 -19.5919 -19.5863 -19.1034
   -18.7021 -18.6951 -18.4657 -18.4500 -18.1988 -18.0894 -18.0809 -17.8532
   -12.4887 -12.2139 -12.2024 -11.8254 -11.8214 -11.6627 -11.1960 -11.1931
   -10.3961 -10.3716 -10.1219 -10.1186  -9.5930  -9.5921  -8.8438  -8.8292
    -8.8242  -8.7711  -8.7647  -8.6002  -8.2009  -8.0538  -8.0204  -7.8347
    -7.8298  -7.4426  -7.4407  -7.2906  -7.2566  -7.2125  -7.2101  -6.9687
    -6.9548  -6.5678  -6.5427  -6.1579  -6.1566  -5.8744  -5.4223  -5.2956
    -5.2816  -5.2041  -4.9218  -4.8977  -4.5092  -4.3600  -4.3429  -3.9826
    -2.8720  -2.0445  -1.9687  -1.8386  -1.6331  -1.5978  -1.4813  -1.4668
    -1.4114  -1.3674  -1.3100  -0.7148   0.6708   0.9548   1.0574   1.1614
     1.2744   1.4645   1.4972   1.5810   1.5997   1.7763

          k = 0.1667-0.4811 0.0000 ( 59291 PWs)   bands (ev):

   -72.8789 -72.8708 -44.4292 -44.3487 -44.2820 -44.2742 -44.2519 -44.2437
   -21.1211 -20.9155 -20.7272 -20.1650 -19.8083 -19.4705 -19.3205 -19.1791
   -19.0180 -18.7832 -18.6459 -18.5471 -18.1535 -18.0917 -17.9261 -17.7275
   -12.3530 -12.1180 -12.0485 -11.9103 -11.6847 -11.6625 -11.5566 -10.9456
   -10.8946 -10.6279 -10.5267  -9.8645  -9.6973  -9.3400  -9.1149  -8.6716
    -8.6271  -8.5573  -8.3927  -8.3697  -8.1654  -8.1268  -8.0673  -8.0538
    -7.6930  -7.6273  -7.4984  -7.4777  -7.3598  -7.1748  -7.0715  -6.8634
    -6.6260  -6.3921  -6.1798  -6.1617  -5.9762  -5.9331  -5.7877  -5.7478
    -5.4552  -5.4020  -5.2140  -5.0437  -4.4480  -4.3496  -4.0927  -3.7701
    -2.8690  -2.0445  -1.9687  -1.8350  -1.6322  -1.5975  -1.4842  -1.4674
    -1.4117  -1.3672  -1.3107  -0.7192   0.5808   0.9444   1.0799   1.1154
     1.2148   1.2364   1.3605   1.8389   1.9074   2.1236

          k = 0.1667-0.0962 0.0000 ( 59226 PWs)   bands (ev):

   -72.8789 -72.8708 -44.4292 -44.3487 -44.2821 -44.2741 -44.2519 -44.2437
   -21.3175 -20.5404 -20.3495 -20.3425 -19.9923 -19.9851 -19.8091 -18.7326
   -18.7276 -18.3820 -18.3668 -18.3619 -18.2765 -18.2610 -18.0807 -18.0746
   -12.5142 -12.5041 -12.4120 -11.5858 -11.5804 -11.4349 -11.4200 -10.9301
   -10.9277  -9.9326  -9.9309  -9.6800  -9.3818  -9.3737  -9.2339  -9.2322
    -9.0458  -9.0441  -8.9269  -8.3269  -8.3260  -7.9070  -7.9017  -7.8849
    -7.8490  -7.7742  -7.6118  -7.5857  -7.1374  -7.0965  -6.9635  -6.8918
    -6.8895  -6.8538  -6.5346  -6.5327  -6.2613  -5.3506  -5.3235  -5.1472
    -5.0692  -4.8139  -4.7944  -4.7607  -4.6231  -4.6027  -4.3560  -4.3347
    -2.8753  -2.0445  -1.9686  -1.8421  -1.6351  -1.5981  -1.4786  -1.4662
    -1.4111  -1.3677  -1.3094  -0.7103   0.7798   0.9271   1.0074   1.1811
     1.2677   1.3256   1.5720   1.5815   1.6975   1.9183

          k =-0.5000-0.8660 0.0000 ( 59292 PWs)   bands (ev):

   -72.8789 -72.8708 -44.4292 -44.3487 -44.2821 -44.2742 -44.2518 -44.2437
   -21.0550 -21.0498 -20.4736 -20.4677 -19.4339 -19.4272 -19.4147 -19.4105
   -18.9969 -18.9917 -18.3320 -18.3294 -18.3200 -18.3099 -17.7968 -17.7924
   -12.0765 -12.0730 -12.0678 -12.0602 -11.8824 -11.8772 -11.3335 -11.3312
   -10.2385 -10.2367 -10.1399 -10.1352 -10.1335 -10.1300  -8.5910  -8.5539
    -8.5518  -8.5499  -8.5485  -8.5425  -7.8683  -7.8664  -7.8649  -7.8618
    -7.8261  -7.8241  -7.7832  -7.7577  -7.4953  -7.4887  -6.6146  -6.6127
    -6.3613  -6.3255  -6.3221  -6.2956  -6.1948  -6.1902  -5.7092  -5.7053
    -5.5507  -5.5445  -4.7302  -4.7148  -4.7123  -4.6909  -3.8897  -3.8718
    -2.8571  -2.0428  -1.9691  -1.8373  -1.6326  -1.5987  -1.4847  -1.4686
    -1.4162  -1.3715  -1.3092  -0.8378   0.7624   1.0554   1.0928   1.1814
     1.4227   1.5381   1.5874   1.6134   1.6450   1.7695

          k =-0.1667 0.2887 0.0000 ( 59267 PWs)   bands (ev):

   -72.8789 -72.8708 -44.4292 -44.3487 -44.2821 -44.2741 -44.2519 -44.2437
   -21.2511 -20.6652 -20.6594 -20.1131 -20.0959 -19.5919 -19.5862 -19.1034
   -18.7022 -18.6951 -18.4657 -18.4500 -18.1987 -18.0894 -18.0808 -17.8532
   -12.4886 -12.2139 -12.2024 -11.8254 -11.8214 -11.6627 -11.1961 -11.1931
   -10.3962 -10.3716 -10.1219 -10.1186  -9.5931  -9.5921  -8.8438  -8.8292
    -8.8242  -8.7712  -8.7647  -8.6002  -8.2010  -8.0538  -8.0204  -7.8347
    -7.8297  -7.4426  -7.4407  -7.2906  -7.2566  -7.2125  -7.2101  -6.9687
    -6.9549  -6.5678  -6.5426  -6.1579  -6.1566  -5.8744  -5.4224  -5.2957
    -5.2816  -5.2040  -4.9217  -4.8976  -4.5092  -4.3600  -4.3429  -3.9826
    -2.8720  -2.0445  -1.9687  -1.8386  -1.6331  -1.5978  -1.4813  -1.4668
    -1.4114  -1.3674  -1.3100  -0.7148   0.6708   0.9548   1.0574   1.1615
     1.2743   1.4645   1.4972   1.5810   1.5997   1.7763

          k = 0.3333 0.0000 0.0000 ( 59267 PWs)   bands (ev):

   -72.8789 -72.8708 -44.4292 -44.3487 -44.2821 -44.2741 -44.2518 -44.2437
   -21.2506 -20.6917 -20.6327 -20.1131 -20.0942 -19.6190 -19.5612 -19.1056
   -18.7194 -18.6723 -18.4678 -18.4499 -18.1940 -18.1130 -18.0644 -17.8523
   -12.4875 -12.2156 -12.2012 -11.8354 -11.8142 -11.6607 -11.2147 -11.1743
   -10.3953 -10.3712 -10.1360 -10.1055  -9.5997  -9.5840  -8.8460  -8.8311
    -8.8173  -8.7934  -8.7438  -8.6010  -8.2032  -8.1063  -7.9673  -7.8330
    -7.8289  -7.4491  -7.4342  -7.2960  -7.2456  -7.2224  -7.1996  -6.9701
    -6.9553  -6.6225  -6.4953  -6.1607  -6.1529  -5.8816  -5.4224  -5.3129
    -5.2521  -5.2044  -4.9323  -4.8899  -4.5001  -4.3907  -4.3256  -3.9812
    -2.8644  -2.0431  -1.9689  -1.8402  -1.6345  -1.5986  -1.4815  -1.4672
    -1.4137  -1.3704  -1.3091  -0.7973   0.7977   1.0430   1.1601   1.2405
     1.2977   1.4474   1.5112   1.5593   1.5894   1.7663

          k =-0.1667-0.4811 0.0000 ( 59291 PWs)   bands (ev):

   -72.8789 -72.8708 -44.4292 -44.3487 -44.2820 -44.2742 -44.2519 -44.2437
   -21.1211 -20.9155 -20.7272 -20.1650 -19.8083 -19.4705 -19.3205 -19.1791
   -19.0180 -18.7832 -18.6459 -18.5471 -18.1535 -18.0917 -17.9261 -17.7275
   -12.3530 -12.1179 -12.0485 -11.9102 -11.6846 -11.6625 -11.5566 -10.9456
   -10.8946 -10.6279 -10.5267  -9.8645  -9.6973  -9.3400  -9.1150  -8.6716
    -8.6270  -8.5573  -8.3927  -8.3697  -8.1654  -8.1268  -8.0673  -8.0539
    -7.6930  -7.6273  -7.4983  -7.4777  -7.3598  -7.1748  -7.0714  -6.8634
    -6.6260  -6.3922  -6.1798  -6.1617  -5.9762  -5.9330  -5.7876  -5.7478
    -5.4552  -5.4020  -5.2140  -5.0437  -4.4480  -4.3496  -4.0927  -3.7701
    -2.8690  -2.0445  -1.9687  -1.8350  -1.6322  -1.5975  -1.4842  -1.4674
    -1.4117  -1.3672  -1.3107  -0.7192   0.5808   0.9444   1.0799   1.1153
     1.2148   1.2363   1.3605   1.8389   1.9074   2.1234

          k = 0.5000-0.0962 0.0000 ( 59291 PWs)   bands (ev):

   -72.8789 -72.8708 -44.4292 -44.3487 -44.2821 -44.2741 -44.2519 -44.2437
   -21.1179 -20.9243 -20.7215 -20.1631 -19.8084 -19.4723 -19.3278 -19.1732
   -19.0192 -18.7836 -18.6348 -18.5541 -18.1407 -18.1098 -17.9224 -17.7272
   -12.3509 -12.1188 -12.0464 -11.9151 -11.6985 -11.6466 -11.5587 -10.9468
   -10.8916 -10.6255 -10.5296  -9.8623  -9.6978  -9.3409  -9.1143  -8.6603
    -8.6279  -8.5548  -8.4028  -8.3973  -8.1631  -8.1059  -8.0812  -8.0409
    -7.6885  -7.6280  -7.4972  -7.4792  -7.3533  -7.1760  -7.0725  -6.8632
    -6.6265  -6.3998  -6.1999  -6.1611  -5.9597  -5.9325  -5.7868  -5.7505
    -5.4564  -5.4013  -5.1889  -5.0596  -4.4234  -4.3817  -4.0881  -3.7699
    -2.8573  -2.0428  -1.9691  -1.8373  -1.6331  -1.5988  -1.4847  -1.4686
    -1.4162  -1.3715  -1.3093  -0.8375   0.7470   1.0369   1.1150   1.1813
     1.2824   1.3359   1.5274   1.7605   1.8437   1.8815

          k =-0.3333-0.3849 0.0000 ( 59291 PWs)   bands (ev):

   -72.8789 -72.8708 -44.4292 -44.3487 -44.2821 -44.2742 -44.2519 -44.2437
   -21.1191 -20.9212 -20.7236 -20.1629 -19.8104 -19.4704 -19.3221 -19.1768
   -19.0227 -18.7814 -18.6364 -18.5533 -18.1433 -18.1066 -17.9226 -17.7274
   -12.3523 -12.1157 -12.0495 -11.9130 -11.6864 -11.6605 -11.5578 -10.9464
   -10.8919 -10.6250 -10.5301  -9.8626  -9.6978  -9.3409  -9.1154  -8.6640
    -8.6262  -8.5569  -8.3948  -8.3902  -8.1649  -8.1138  -8.0671  -8.0566
    -7.6890  -7.6261  -7.5047  -7.4722  -7.3520  -7.1761  -7.0731  -6.8711
    -6.6244  -6.3926  -6.1823  -6.1638  -5.9717  -5.9311  -5.7870  -5.7616
    -5.4563  -5.3950  -5.1897  -5.0603  -4.4269  -4.3781  -4.0876  -3.7701
    -2.8611  -2.0435  -1.9690  -1.8365  -1.6325  -1.5984  -1.4844  -1.4683
    -1.4149  -1.3700  -1.3098  -0.8014   0.6896   1.0396   1.1090   1.1522
     1.2323   1.3538   1.3813   1.8203   1.8944   1.9230

          k = 0.5000 0.0962 0.0000 ( 59291 PWs)   bands (ev):

   -72.8789 -72.8708 -44.4292 -44.3487 -44.2821 -44.2741 -44.2519 -44.2437
   -21.1179 -20.9243 -20.7215 -20.1631 -19.8084 -19.4723 -19.3278 -19.1732
   -19.0192 -18.7836 -18.6349 -18.5541 -18.1408 -18.1098 -17.9224 -17.7272
   -12.3509 -12.1188 -12.0464 -11.9151 -11.6985 -11.6465 -11.5587 -10.9467
   -10.8916 -10.6255 -10.5296  -9.8623  -9.6978  -9.3409  -9.1143  -8.6603
    -8.6279  -8.5549  -8.4028  -8.3973  -8.1632  -8.1059  -8.0812  -8.0408
    -7.6885  -7.6280  -7.4972  -7.4793  -7.3533  -7.1761  -7.0724  -6.8632
    -6.6264  -6.3998  -6.1999  -6.1610  -5.9597  -5.9325  -5.7869  -5.7505
    -5.4565  -5.4013  -5.1889  -5.0595  -4.4234  -4.3817  -4.0881  -3.7699
    -2.8573  -2.0428  -1.9691  -1.8373  -1.6331  -1.5988  -1.4847  -1.4686
    -1.4162  -1.3715  -1.3093  -0.8375   0.7470   1.0369   1.1150   1.1813
     1.2824   1.3358   1.5274   1.7605   1.8437   1.8815

          k =-0.3333 0.3849 0.0000 ( 59291 PWs)   bands (ev):

   -72.8789 -72.8708 -44.4292 -44.3487 -44.2821 -44.2742 -44.2519 -44.2437
   -21.1191 -20.9212 -20.7236 -20.1629 -19.8104 -19.4704 -19.3221 -19.1768
   -19.0227 -18.7814 -18.6364 -18.5533 -18.1433 -18.1066 -17.9226 -17.7274
   -12.3523 -12.1157 -12.0495 -11.9130 -11.6864 -11.6605 -11.5577 -10.9464
   -10.8919 -10.6250 -10.5301  -9.8626  -9.6978  -9.3409  -9.1154  -8.6640
    -8.6263  -8.5569  -8.3948  -8.3902  -8.1649  -8.1138  -8.0671  -8.0566
    -7.6890  -7.6261  -7.5047  -7.4722  -7.3520  -7.1761  -7.0732  -6.8711
    -6.6244  -6.3926  -6.1822  -6.1638  -5.9717  -5.9312  -5.7869  -5.7616
    -5.4562  -5.3949  -5.1897  -5.0603  -4.4269  -4.3781  -4.0875  -3.7701
    -2.8611  -2.0435  -1.9690  -1.8365  -1.6325  -1.5984  -1.4844  -1.4683
    -1.4149  -1.3700  -1.3098  -0.8014   0.6896   1.0396   1.1090   1.1522
     1.2323   1.3538   1.3812   1.8204   1.8948   1.9230

          k =-0.1667-0.0962 0.0000 ( 59226 PWs)   bands (ev):

   -72.8789 -72.8708 -44.4292 -44.3487 -44.2821 -44.2741 -44.2519 -44.2437
   -21.3175 -20.5404 -20.3495 -20.3425 -19.9923 -19.9851 -19.8091 -18.7326
   -18.7276 -18.3820 -18.3668 -18.3619 -18.2765 -18.2610 -18.0807 -18.0746
   -12.5142 -12.5041 -12.4120 -11.5858 -11.5804 -11.4349 -11.4200 -10.9301
   -10.9277  -9.9326  -9.9310  -9.6800  -9.3818  -9.3737  -9.2339  -9.2323
    -9.0458  -9.0442  -8.9269  -8.3269  -8.3261  -7.9070  -7.9017  -7.8849
    -7.8489  -7.7743  -7.6118  -7.5857  -7.1374  -7.0965  -6.9636  -6.8918
    -6.8894  -6.8538  -6.5346  -6.5326  -6.2614  -5.3506  -5.3235  -5.1471
    -5.0693  -4.8139  -4.7943  -4.7607  -4.6231  -4.6027  -4.3560  -4.3347
    -2.8753  -2.0445  -1.9686  -1.8421  -1.6351  -1.5981  -1.4786  -1.4662
    -1.4111  -1.3677  -1.3094  -0.7103   0.7798   0.9271   1.0074   1.1811
     1.2677   1.3256   1.5721   1.5815   1.6975   1.9183

          k =-0.0000-0.1925 0.0000 ( 59226 PWs)   bands (ev):

   -72.8789 -72.8708 -44.4292 -44.3487 -44.2821 -44.2741 -44.2518 -44.2437
   -21.3176 -20.5346 -20.3624 -20.3396 -19.9932 -19.9757 -19.8134 -18.7377
   -18.7180 -18.4073 -18.3695 -18.3551 -18.2574 -18.2573 -18.0893 -18.0720
   -12.5162 -12.5029 -12.4112 -11.5904 -11.5766 -11.4340 -11.4185 -10.9325
   -10.9271  -9.9357  -9.9282  -9.6800  -9.3819  -9.3716  -9.2354  -9.2319
    -9.0455  -9.0450  -8.9276  -8.3291  -8.3231  -7.9071  -7.9010  -7.8654
    -7.8467  -7.7762  -7.6419  -7.5917  -7.1179  -7.0871  -6.9618  -6.8958
    -6.8873  -6.8671  -6.5377  -6.5286  -6.2621  -5.3492  -5.3142  -5.1474
    -5.0689  -4.8642  -4.7898  -4.7521  -4.5971  -4.5915  -4.3659  -4.3353
    -2.8790  -2.0452  -1.9685  -1.8413  -1.6344  -1.5977  -1.4787  -1.4661
    -1.4101  -1.3662  -1.3098  -0.6622   0.6920   0.8539   1.0039   1.1548
     1.2193   1.3801   1.5551   1.6047   1.6902   1.9644

          k = 0.5000-0.8660 0.0000 ( 59292 PWs)   bands (ev):

   -72.8789 -72.8708 -44.4292 -44.3487 -44.2821 -44.2742 -44.2518 -44.2437
   -21.0551 -21.0498 -20.4736 -20.4677 -19.4339 -19.4272 -19.4147 -19.4105
   -18.9970 -18.9916 -18.3321 -18.3293 -18.3201 -18.3098 -17.7968 -17.7924
   -12.0766 -12.0729 -12.0679 -12.0601 -11.8824 -11.8772 -11.3335 -11.3311
   -10.2385 -10.2367 -10.1399 -10.1352 -10.1335 -10.1300  -8.5910  -8.5539
    -8.5519  -8.5499  -8.5484  -8.5424  -7.8683  -7.8664  -7.8650  -7.8618
    -7.8262  -7.8241  -7.7832  -7.7577  -7.4953  -7.4888  -6.6145  -6.6126
    -6.3613  -6.3255  -6.3221  -6.2956  -6.1948  -6.1900  -5.7092  -5.7052
    -5.5508  -5.5446  -4.7302  -4.7147  -4.7123  -4.6909  -3.8897  -3.8718
    -2.8571  -2.0428  -1.9691  -1.8373  -1.6326  -1.5987  -1.4847  -1.4686
    -1.4162  -1.3715  -1.3092  -0.8378   0.7624   1.0554   1.0928   1.1814
     1.4226   1.5381   1.5874   1.6134   1.6450   1.7693

          k =-1.0000 0.0000 0.0000 ( 59292 PWs)   bands (ev):

   -72.8789 -72.8708 -44.4293 -44.3487 -44.2821 -44.2741 -44.2519 -44.2436
   -21.0805 -21.0212 -20.4840 -20.4626 -19.4456 -19.4129 -19.4122 -19.4084
   -19.0193 -18.9720 -18.3807 -18.3335 -18.2957 -18.2815 -17.8047 -17.7868
   -12.1163 -12.0771 -12.0469 -12.0337 -11.8884 -11.8715 -11.3550 -11.3110
   -10.2539 -10.2384 -10.1374 -10.1359 -10.1273 -10.1235  -8.6357  -8.5825
    -8.5607  -8.5293  -8.5194  -8.4931  -7.8847  -7.8775  -7.8639  -7.8554
    -7.8207  -7.8155  -7.7978  -7.7582  -7.5194  -7.4674  -6.6186  -6.6054
    -6.3716  -6.3170  -6.3044  -6.2892  -6.2138  -6.1742  -5.7418  -5.6815
    -5.5715  -5.5240  -4.8237  -4.7158  -4.6724  -4.6393  -3.8968  -3.8670
    -2.8729  -2.0449  -1.9687  -1.8342  -1.6320  -1.5971  -1.4843  -1.4668
    -1.4097  -1.3658  -1.3110  -0.6719   0.5385   0.8361   1.0983   1.1149
     1.1473   1.4663   1.5528   1.6224   1.6351   1.9358

 ------ SPIN DOWN ----------


          k = 0.1667 0.2887 0.0000 ( 59267 PWs)   bands (ev):

   -68.6806 -68.6712 -40.3608 -40.2655 -40.1068 -40.0973 -40.0455 -40.0356
   -21.2473 -20.6620 -20.6550 -20.1089 -20.0925 -19.5891 -19.5815 -19.0995
   -18.6986 -18.6899 -18.4614 -18.4463 -18.1941 -18.0859 -18.0771 -17.8491
   -12.4861 -12.2110 -12.2003 -11.8232 -11.8191 -11.6605 -11.1939 -11.1901
   -10.3933 -10.3691 -10.1196 -10.1154  -9.5907  -9.5895  -8.8321  -8.8215
    -8.8185  -8.7692  -8.7619  -8.5979  -8.1987  -8.0303  -8.0107  -7.8322
    -7.8274  -7.4395  -7.4375  -7.2715  -7.2437  -7.2106  -7.2072  -6.9661
    -6.9527  -6.5470  -6.5345  -6.1554  -6.1540  -5.8589  -5.4194  -5.2771
    -5.2665  -5.2014  -4.9070  -4.8857  -4.4934  -4.3456  -4.3331  -3.9691
    -1.4406   0.3898   0.8752   1.0601   1.1030   1.1796   1.2613   1.3241
     1.4122   1.4951   1.5288   1.5713   1.6381   1.7249   1.8751   1.9968
     2.0452   2.1262   2.1497   2.1955   2.2597   2.3329

          k = 0.1667-0.4811 0.0000 ( 59291 PWs)   bands (ev):

   -68.6806 -68.6712 -40.3608 -40.2655 -40.1068 -40.0973 -40.0455 -40.0356
   -21.1170 -20.9124 -20.7232 -20.1611 -19.8045 -19.4667 -19.3168 -19.1749
   -19.0142 -18.7793 -18.6406 -18.5439 -18.1479 -18.0895 -17.9218 -17.7232
   -12.3504 -12.1154 -12.0463 -11.9080 -11.6828 -11.6598 -11.5542 -10.9431
   -10.8917 -10.6251 -10.5243  -9.8614  -9.6948  -9.3371  -9.1125  -8.6488
    -8.6246  -8.5542  -8.3905  -8.3581  -8.1630  -8.1098  -8.0651  -8.0513
    -7.6902  -7.6249  -7.4959  -7.4754  -7.3425  -7.1718  -7.0691  -6.8481
    -6.6228  -6.3772  -6.1644  -6.1591  -5.9610  -5.9300  -5.7850  -5.7333
    -5.4526  -5.3872  -5.1925  -5.0347  -4.4286  -4.3430  -4.0790  -3.7570
    -1.4312   0.3782   0.8482   1.0221   1.0650   1.1271   1.1930   1.2574
     1.3106   1.4582   1.5391   1.7391   1.7933   1.8301   1.8916   2.0822
     2.1268   2.1447   2.1749   2.2167   2.2817   2.3216

          k = 0.1667-0.0962 0.0000 ( 59226 PWs)   bands (ev):

   -68.6806 -68.6712 -40.3608 -40.2656 -40.1068 -40.0973 -40.0455 -40.0356
   -21.3137 -20.5361 -20.3459 -20.3392 -19.9878 -19.9815 -19.8058 -18.7280
   -18.7235 -18.3776 -18.3633 -18.3576 -18.2721 -18.2568 -18.0767 -18.0714
   -12.5116 -12.5018 -12.4097 -11.5832 -11.5783 -11.4320 -11.4179 -10.9274
   -10.9253  -9.9300  -9.9287  -9.6771  -9.3792  -9.3713  -9.2309  -9.2294
    -9.0435  -9.0417  -8.9087  -8.3238  -8.3230  -7.9041  -7.8993  -7.8637
    -7.8450  -7.7719  -7.5957  -7.5753  -7.1134  -7.0854  -6.9609  -6.8893
    -6.8872  -6.8435  -6.5319  -6.5303  -6.2589  -5.3294  -5.3107  -5.1443
    -5.0665  -4.7981  -4.7795  -4.7462  -4.6093  -4.5907  -4.3402  -4.3253
    -1.4500   0.4038   0.8955   1.0223   1.0821   1.1526   1.1877   1.3407
     1.4343   1.5108   1.5901   1.6492   1.7804   1.8256   1.8972   1.9255
     2.0306   2.0742   2.1314   2.1590   2.2184   2.3397

          k =-0.5000-0.8660 0.0000 ( 59292 PWs)   bands (ev):

   -68.6806 -68.6712 -40.3608 -40.2656 -40.1068 -40.0974 -40.0455 -40.0356
   -21.0522 -21.0449 -20.4699 -20.4642 -19.4291 -19.4231 -19.4108 -19.4072
   -18.9944 -18.9866 -18.3271 -18.3254 -18.3188 -18.3035 -17.7925 -17.7887
   -12.0732 -12.0708 -12.0665 -12.0570 -11.8801 -11.8752 -11.3314 -11.3281
   -10.2358 -10.2344 -10.1368 -10.1324 -10.1309 -10.1275  -8.5635  -8.5505
    -8.5490  -8.5471  -8.5414  -8.5384  -7.8658  -7.8639  -7.8623  -7.8595
    -7.8223  -7.8209  -7.7666  -7.7467  -7.4937  -7.4858  -6.6116  -6.6102
    -6.3347  -6.3113  -6.3057  -6.2858  -6.1926  -6.1867  -5.6962  -5.6917
    -5.5488  -5.5411  -4.7121  -4.7029  -4.6898  -4.6866  -3.8737  -3.8619
    -1.4077   0.1417   0.8678   1.0228   1.1109   1.1611   1.2634   1.3976
     1.4661   1.5394   1.5856   1.7062   1.7400   1.8894   1.9241   1.9354
     1.9922   2.0605   2.1865   2.2397   2.2950   2.3576

          k =-0.1667 0.2887 0.0000 ( 59267 PWs)   bands (ev):

   -68.6806 -68.6712 -40.3608 -40.2655 -40.1068 -40.0973 -40.0455 -40.0356
   -21.2473 -20.6621 -20.6550 -20.1089 -20.0925 -19.5892 -19.5815 -19.0995
   -18.6987 -18.6898 -18.4614 -18.4463 -18.1941 -18.0860 -18.0770 -17.8491
   -12.4861 -12.2111 -12.2003 -11.8232 -11.8191 -11.6605 -11.1939 -11.1900
   -10.3933 -10.3691 -10.1196 -10.1153  -9.5908  -9.5894  -8.8320  -8.8214
    -8.8185  -8.7693  -8.7619  -8.5979  -8.1987  -8.0303  -8.0107  -7.8322
    -7.8274  -7.4395  -7.4375  -7.2715  -7.2437  -7.2106  -7.2072  -6.9661
    -6.9527  -6.5470  -6.5344  -6.1554  -6.1540  -5.8589  -5.4195  -5.2771
    -5.2665  -5.2013  -4.9070  -4.8857  -4.4934  -4.3456  -4.3330  -3.9691
    -1.4406   0.3898   0.8752   1.0601   1.1030   1.1796   1.2613   1.3241
     1.4122   1.4951   1.5288   1.5713   1.6381   1.7249   1.8751   1.9969
     2.0452   2.1262   2.1496   2.1954   2.2597   2.3329

          k = 0.3333 0.0000 0.0000 ( 59267 PWs)   bands (ev):

   -68.6806 -68.6712 -40.3608 -40.2656 -40.1068 -40.0973 -40.0455 -40.0357
   -21.2468 -20.6861 -20.6308 -20.1089 -20.0910 -19.6132 -19.5592 -19.1014
   -18.7133 -18.6706 -18.4632 -18.4463 -18.1901 -18.1064 -18.0625 -17.8484
   -12.4853 -12.2120 -12.1996 -11.8324 -11.8124 -11.6586 -11.2113 -11.1726
   -10.3924 -10.3689 -10.1319 -10.1040  -9.5968  -9.5821  -8.8339  -8.8249
    -8.8110  -8.7899  -8.7425  -8.5986  -8.2005  -8.0776  -7.9632  -7.8307
    -7.8266  -7.4450  -7.4319  -7.2746  -7.2364  -7.2193  -7.1980  -6.9670
    -6.9533  -6.5961  -6.4908  -6.1580  -6.1506  -5.8641  -5.4193  -5.2930
    -5.2415  -5.2017  -4.9155  -4.8796  -4.4863  -4.3718  -4.3167  -3.9682
    -1.4257   0.2220   0.9060   1.0418   1.1090   1.1926   1.2262   1.4322
     1.4508   1.4947   1.5494   1.6257   1.7897   1.8657   1.9018   1.9243
     2.0276   2.0779   2.1528   2.1896   2.2799   2.3681

          k =-0.1667-0.4811 0.0000 ( 59291 PWs)   bands (ev):

   -68.6806 -68.6712 -40.3608 -40.2655 -40.1068 -40.0973 -40.0455 -40.0356
   -21.1170 -20.9124 -20.7232 -20.1611 -19.8045 -19.4667 -19.3168 -19.1749
   -19.0142 -18.7793 -18.6406 -18.5439 -18.1479 -18.0895 -17.9218 -17.7232
   -12.3504 -12.1154 -12.0463 -11.9080 -11.6827 -11.6598 -11.5542 -10.9431
   -10.8917 -10.6251 -10.5243  -9.8614  -9.6948  -9.3371  -9.1125  -8.6488
    -8.6245  -8.5542  -8.3905  -8.3581  -8.1629  -8.1098  -8.0652  -8.0514
    -7.6902  -7.6249  -7.4959  -7.4754  -7.3425  -7.1717  -7.0691  -6.8481
    -6.6229  -6.3772  -6.1645  -6.1591  -5.9610  -5.9299  -5.7849  -5.7332
    -5.4527  -5.3872  -5.1925  -5.0348  -4.4286  -4.3430  -4.0790  -3.7570
    -1.4312   0.3782   0.8482   1.0221   1.0650   1.1270   1.1930   1.2574
     1.3106   1.4582   1.5392   1.7391   1.7933   1.8301   1.8916   2.0822
     2.1268   2.1448   2.1749   2.2167   2.2817   2.3217

          k = 0.5000-0.0962 0.0000 ( 59291 PWs)   bands (ev):

   -68.6806 -68.6712 -40.3608 -40.2656 -40.1068 -40.0973 -40.0455 -40.0357
   -21.1142 -20.9200 -20.7183 -20.1594 -19.8046 -19.4682 -19.3231 -19.1699
   -19.0152 -18.7796 -18.6312 -18.5499 -18.1370 -18.1047 -17.9188 -17.7230
   -12.3486 -12.1161 -12.0444 -11.9123 -11.6954 -11.6452 -11.5562 -10.9440
   -10.8890 -10.6230 -10.5269  -9.8594  -9.6954  -9.3380  -9.1120  -8.6406
    -8.6252  -8.5522  -8.3949  -8.3815  -8.1609  -8.0949  -8.0778  -8.0396
    -7.6862  -7.6255  -7.4948  -7.4768  -7.3376  -7.1729  -7.0700  -6.8480
    -6.6232  -6.3823  -6.1793  -6.1587  -5.9494  -5.9294  -5.7842  -5.7349
    -5.4538  -5.3871  -5.1739  -5.0464  -4.4091  -4.3677  -4.0758  -3.7570
    -1.4078   0.1434   0.8627   1.0203   1.1039   1.1272   1.2014   1.2764
     1.3584   1.6121   1.7101   1.7526   1.8347   1.9109   1.9549   1.9905
     2.0618   2.1455   2.2077   2.2401   2.2881   2.3495

          k =-0.3333-0.3849 0.0000 ( 59291 PWs)   bands (ev):

   -68.6806 -68.6712 -40.3608 -40.2656 -40.1068 -40.0973 -40.0455 -40.0357
   -21.1151 -20.9173 -20.7201 -20.1592 -19.8064 -19.4666 -19.3182 -19.1730
   -19.0182 -18.7777 -18.6325 -18.5493 -18.1390 -18.1022 -17.9189 -17.7232
   -12.3498 -12.1134 -12.0471 -11.9106 -11.6842 -11.6580 -11.5553 -10.9437
   -10.8893 -10.6225 -10.5274  -9.8597  -9.6954  -9.3380  -9.1128  -8.6432
    -8.6238  -8.5539  -8.3920  -8.3731  -8.1625  -8.1005  -8.0650  -8.0537
    -7.6867  -7.6238  -7.5016  -7.4706  -7.3369  -7.1730  -7.0705  -6.8535
    -6.6213  -6.3773  -6.1664  -6.1607  -5.9579  -5.9282  -5.7844  -5.7432
    -5.4536  -5.3827  -5.1747  -5.0464  -4.4120  -4.3647  -4.0754  -3.7571
    -1.4157   0.2094   0.8549   1.0175   1.0851   1.1589   1.2010   1.2697
     1.3438   1.5233   1.6854   1.7727   1.8378   1.8824   1.9539   2.0226
     2.0624   2.0888   2.1727   2.2223   2.2998   2.3256

          k = 0.5000 0.0962 0.0000 ( 59291 PWs)   bands (ev):

   -68.6806 -68.6712 -40.3608 -40.2656 -40.1068 -40.0973 -40.0455 -40.0357
   -21.1142 -20.9200 -20.7183 -20.1594 -19.8046 -19.4682 -19.3231 -19.1699
   -19.0152 -18.7796 -18.6312 -18.5499 -18.1370 -18.1047 -17.9188 -17.7230
   -12.3486 -12.1161 -12.0443 -11.9124 -11.6954 -11.6451 -11.5562 -10.9440
   -10.8890 -10.6231 -10.5270  -9.8594  -9.6954  -9.3380  -9.1119  -8.6406
    -8.6252  -8.5522  -8.3949  -8.3815  -8.1609  -8.0949  -8.0778  -8.0395
    -7.6863  -7.6255  -7.4949  -7.4769  -7.3376  -7.1730  -7.0699  -6.8480
    -6.6232  -6.3823  -6.1793  -6.1586  -5.9495  -5.9294  -5.7843  -5.7349
    -5.4538  -5.3871  -5.1738  -5.0463  -4.4091  -4.3676  -4.0758  -3.7570
    -1.4078   0.1434   0.8627   1.0204   1.1039   1.1272   1.2014   1.2764
     1.3584   1.6121   1.7100   1.7526   1.8347   1.9109   1.9549   1.9905
     2.0618   2.1454   2.2077   2.2400   2.2881   2.3495

          k =-0.3333 0.3849 0.0000 ( 59291 PWs)   bands (ev):

   -68.6806 -68.6712 -40.3608 -40.2656 -40.1068 -40.0973 -40.0455 -40.0357
   -21.1151 -20.9173 -20.7201 -20.1592 -19.8064 -19.4666 -19.3182 -19.1730
   -19.0182 -18.7778 -18.6325 -18.5493 -18.1390 -18.1022 -17.9189 -17.7232
   -12.3497 -12.1134 -12.0471 -11.9106 -11.6842 -11.6580 -11.5553 -10.9437
   -10.8892 -10.6225 -10.5274  -9.8598  -9.6954  -9.3379  -9.1128  -8.6432
    -8.6238  -8.5538  -8.3921  -8.3731  -8.1626  -8.1005  -8.0650  -8.0537
    -7.6867  -7.6237  -7.5016  -7.4706  -7.3369  -7.1730  -7.0706  -6.8535
    -6.6214  -6.3773  -6.1664  -6.1608  -5.9579  -5.9283  -5.7843  -5.7432
    -5.4535  -5.3827  -5.1748  -5.0464  -4.4120  -4.3647  -4.0754  -3.7571
    -1.4157   0.2094   0.8549   1.0175   1.0851   1.1589   1.2010   1.2697
     1.3438   1.5233   1.6854   1.7728   1.8378   1.8824   1.9539   2.0225
     2.0625   2.0888   2.1727   2.2223   2.3001   2.3257

          k =-0.1667-0.0962 0.0000 ( 59226 PWs)   bands (ev):

   -68.6806 -68.6712 -40.3608 -40.2656 -40.1068 -40.0973 -40.0455 -40.0356
   -21.3137 -20.5361 -20.3459 -20.3392 -19.9878 -19.9815 -19.8058 -18.7280
   -18.7235 -18.3776 -18.3633 -18.3576 -18.2721 -18.2568 -18.0767 -18.0714
   -12.5116 -12.5018 -12.4097 -11.5832 -11.5783 -11.4321 -11.4179 -10.9274
   -10.9253  -9.9300  -9.9287  -9.6771  -9.3792  -9.3713  -9.2309  -9.2295
    -9.0435  -9.0417  -8.9087  -8.3238  -8.3231  -7.9041  -7.8993  -7.8637
    -7.8450  -7.7720  -7.5957  -7.5753  -7.1134  -7.0854  -6.9610  -6.8893
    -6.8872  -6.8435  -6.5319  -6.5303  -6.2589  -5.3294  -5.3107  -5.1442
    -5.0666  -4.7981  -4.7795  -4.7462  -4.6093  -4.5907  -4.3403  -4.3253
    -1.4500   0.4038   0.8955   1.0223   1.0821   1.1526   1.1877   1.3407
     1.4343   1.5108   1.5901   1.6492   1.7804   1.8256   1.8972   1.9255
     2.0306   2.0741   2.1314   2.1590   2.2184   2.3398

          k =-0.0000-0.1925 0.0000 ( 59226 PWs)   bands (ev):

   -68.6806 -68.6712 -40.3608 -40.2655 -40.1068 -40.0973 -40.0455 -40.0356
   -21.3138 -20.5310 -20.3577 -20.3361 -19.9894 -19.9726 -19.8095 -18.7332
   -18.7145 -18.4000 -18.3653 -18.3512 -18.2555 -18.2540 -18.0850 -18.0682
   -12.5128 -12.5014 -12.4089 -11.5878 -11.5746 -11.4308 -11.4169 -10.9298
   -10.9246  -9.9331  -9.9258  -9.6772  -9.3795  -9.3693  -9.2323  -9.2289
    -9.0431  -9.0427  -8.9091  -8.3260  -8.3201  -7.9046  -7.8987  -7.8521
    -7.8404  -7.7737  -7.6184  -7.5785  -7.1029  -7.0752  -6.9594  -6.8931
    -6.8850  -6.8532  -6.5351  -6.5263  -6.2595  -5.3313  -5.3009  -5.1445
    -5.0662  -4.8375  -4.7752  -4.7388  -4.5908  -4.5817  -4.3501  -4.3229
    -1.4570   0.5305   0.8730   1.0040   1.0841   1.1479   1.1891   1.3208
     1.3758   1.4689   1.5245   1.5991   1.7461   1.8247   1.8876   1.9822
     2.0433   2.0699   2.1245   2.1691   2.2205   2.2953

          k = 0.5000-0.8660 0.0000 ( 59292 PWs)   bands (ev):

   -68.6806 -68.6712 -40.3608 -40.2656 -40.1068 -40.0974 -40.0455 -40.0356
   -21.0522 -21.0449 -20.4699 -20.4642 -19.4290 -19.4231 -19.4108 -19.4073
   -18.9945 -18.9865 -18.3272 -18.3253 -18.3189 -18.3034 -17.7925 -17.7887
   -12.0733 -12.0708 -12.0666 -12.0569 -11.8801 -11.8752 -11.3314 -11.3280
   -10.2358 -10.2345 -10.1368 -10.1324 -10.1309 -10.1275  -8.5635  -8.5505
    -8.5491  -8.5470  -8.5414  -8.5384  -7.8657  -7.8639  -7.8623  -7.8595
    -7.8224  -7.8210  -7.7666  -7.7467  -7.4937  -7.4858  -6.6116  -6.6102
    -6.3347  -6.3113  -6.3057  -6.2858  -6.1926  -6.1865  -5.6962  -5.6916
    -5.5489  -5.5412  -4.7122  -4.7028  -4.6898  -4.6866  -3.8737  -3.8619
    -1.4077   0.1417   0.8678   1.0228   1.1109   1.1611   1.2634   1.3975
     1.4661   1.5393   1.5856   1.7062   1.7400   1.8894   1.9241   1.9354
     1.9922   2.0605   2.1865   2.2402   2.2950   2.3589

          k =-1.0000 0.0000 0.0000 ( 59292 PWs)   bands (ev):

   -68.6806 -68.6712 -40.3608 -40.2656 -40.1068 -40.0973 -40.0455 -40.0356
   -21.0750 -21.0193 -20.4795 -20.4592 -19.4406 -19.4095 -19.4089 -19.4050
   -19.0132 -18.9702 -18.3722 -18.3284 -18.2934 -18.2809 -17.8001 -17.7829
   -12.1107 -12.0752 -12.0455 -12.0327 -11.8859 -11.8697 -11.3515 -11.3094
   -10.2502 -10.2354 -10.1347 -10.1332 -10.1248 -10.1217  -8.6057  -8.5785
    -8.5574  -8.5280  -8.5187  -8.4891  -7.8808  -7.8744  -7.8612  -7.8533
    -7.8140  -7.8134  -7.7806  -7.7454  -7.5156  -7.4662  -6.6159  -6.6033
    -6.3478  -6.3000  -6.2934  -6.2806  -6.2096  -6.1722  -5.7225  -5.6709
    -5.5673  -5.5229  -4.7927  -4.6991  -4.6644  -4.6381  -3.8820  -3.8551
    -1.4385   0.4965   0.8518   1.0268   1.0566   1.1780   1.2092   1.2639
     1.3342   1.3497   1.6159   1.6371   1.6810   1.7945   1.8039   1.8819
     2.1224   2.1528   2.1676   2.2073   2.3167   2.3301

     the Fermi energy is    -1.1592 ev

!    total energy              =   -1133.82899830 Ry

     total all-electron energy =     -6753.504701 Ry
     estimated scf accuracy    <       0.00000008 Ry
     smearing contrib. (-TS)   =      -0.00000000 Ry
     internal energy E=F+TS    =   -1133.82899830 Ry

     The total energy is F=E-TS. E is the sum of the following terms:
     one-electron contribution =   -3952.88682888 Ry
     hartree contribution      =    2004.61786959 Ry
     xc contribution           =    -186.01994955 Ry
     ewald contribution        =    1359.83739389 Ry
     DFT-D3 Dispersion         =      -0.13471344 Ry
     one-center paw contrib.   =    -359.24276990 Ry

     total magnetization       =    10.00 Bohr mag/cell
     absolute magnetization    =    10.01 Bohr mag/cell

     convergence has been achieved in  14 iterations

     Writing output data file ./mytmp/Crdimer0.1415-0.4.save/
 
     init_run     :     18.10s CPU     19.18s WALL (       1 calls)
     electrons    :    489.03s CPU    522.11s WALL (       1 calls)

     Called by init_run:
     wfcinit      :     13.43s CPU     14.04s WALL (       1 calls)
     potinit      :      1.45s CPU      1.56s WALL (       1 calls)
     hinit0       :      1.51s CPU      1.60s WALL (       1 calls)

     Called by electrons:
     c_bands      :    392.18s CPU    416.47s WALL (      14 calls)
     sum_band     :     75.19s CPU     80.26s WALL (      14 calls)
     v_of_rho     :      4.60s CPU      4.94s WALL (      15 calls)
     newd         :      9.46s CPU     12.44s WALL (      15 calls)
     PAW_pot      :      6.87s CPU      7.45s WALL (      15 calls)
     mix_rho      :      0.98s CPU      1.00s WALL (      14 calls)

     Called by c_bands:
     init_us_2    :      5.06s CPU      5.07s WALL (     870 calls)
     cegterg      :    379.83s CPU    404.07s WALL (     420 calls)

     Called by *egterg:
     cdiaghg      :     26.04s CPU     40.94s WALL (    2792 calls)
     h_psi        :    244.15s CPU    252.46s WALL (    2822 calls)
     s_psi        :     27.51s CPU     27.55s WALL (    2822 calls)
     g_psi        :      0.71s CPU      0.73s WALL (    2372 calls)

     Called by h_psi:
     h_psi:calbec :     28.11s CPU     28.76s WALL (    2822 calls)
     vloc_psi     :    186.23s CPU    193.77s WALL (    2822 calls)
     add_vuspsi   :     27.66s CPU     27.76s WALL (    2822 calls)

     General routines
     calbec       :     37.49s CPU     38.31s WALL (    3242 calls)
     fft          :      4.27s CPU      5.08s WALL (     369 calls)
     ffts         :      0.10s CPU      0.12s WALL (      58 calls)
     fftw         :    191.75s CPU    199.49s WALL (  250818 calls)
     interpolate  :      0.41s CPU      0.44s WALL (      30 calls)
 
     Parallel routines
     fft_scatt_xy :     31.53s CPU     32.61s WALL (  251245 calls)
     fft_scatt_yz :     74.70s CPU     79.00s WALL (  251245 calls)
 
     PWSCF        :   8m29.15s CPU   9m 5.48s WALL

 
   This run was terminated on:  13:31: 9   2Apr2021            

=------------------------------------------------------------------------------=
   JOB DONE.
=------------------------------------------------------------------------------=
