
     Program PWSCF v.6.7MaX starts on  2Apr2021 at 15:21:38 

     This program is part of the open-source Quantum ESPRESSO suite
     for quantum simulation of materials; please cite
         "P. Giannozzi et al., J. Phys.:Condens. Matter 21 395502 (2009);
         "P. Giannozzi et al., J. Phys.:Condens. Matter 29 465901 (2017);
          URL http://www.quantum-espresso.org", 
     in publications or presentations arising from this work. More details at
     http://www.quantum-espresso.org/quote

     Parallel version (MPI), running on    48 processors

     MPI processes distributed on     1 nodes
     R & G space division:  proc/nbgrp/npool/nimage =      48
     Reading input from Crdimer0.143-0.4.scf.in

     Current dimensions of program PWSCF are:
     Max number of different atomic species (ntypx) = 10
     Max number of k-points (npk) =  40000
     Max angular momentum in pseudopotentials (lmaxx) =  3
     file N.pbe-n-kjpaw_psl.1.0.0.UPF: wavefunction(s)  2S renormalized
     file Cr.pbe-spn-kjpaw_psl.1.0.0.UPF: wavefunction(s)  3S 3P 3D renormalized
     file Cr.pbe-spn-kjpaw_psl.1.0.0.UPF: wavefunction(s)  3S 3P 3D renormalized

     --------------------------------------------
     Parameters for DFT-D3 Dispersion Correction:
     --------------------------------------------
       Reference C6 values for interpolation: 

         atom   Coordination number   C6
         B          0.000           214.36
         B          0.971           150.74
         B          1.944           106.23
         B          2.913            62.89
         B          4.586            56.06
         N          0.000            50.54
         N          0.994            44.25
         N          2.014            39.35
         N          2.990            31.16
         Cr1        0.000          1381.48
         Cr1        1.827           571.38
         Cr1       10.619           306.69
         Cr2        0.000          1381.48
         Cr2        1.827           571.38
         Cr2       10.619           306.69

       Values used:

         atom   Coordination number  R0_AB[au]  C6      C8
         B          3.337            3.039     62.89   2505.96
         B          3.336            3.039     62.89   2505.98
         B          3.336            3.039     62.89   2505.99
         B          3.335            3.039     62.89   2506.01
         B          3.354            3.039     62.88   2505.53
         B          3.335            3.039     62.89   2506.00
         N          3.135            2.478     31.22    688.69
         N          3.143            2.478     31.21    688.62
         N          3.135            2.478     31.22    688.68
         N          3.134            2.478     31.22    688.70
         N          3.151            2.478     31.21    688.55
         N          3.135            2.478     31.22    688.69
         N          3.148            2.478     31.21    688.58
         N          3.134            2.478     31.22    688.70
         N          3.134            2.478     31.22    688.70
         B          3.351            3.039     62.88   2505.60
         B          3.336            3.039     62.89   2505.98
         B          3.335            3.039     62.89   2506.00
         B          3.354            3.039     62.88   2505.53
         B          3.337            3.039     62.89   2505.96
         B          3.351            3.039     62.88   2505.60
         N          3.148            2.478     31.21    688.58
         B          3.336            3.039     62.89   2505.99
         B          3.356            3.039     62.88   2505.48
         B          3.336            3.039     62.89   2506.00
         N          3.135            2.478     31.22    688.69
         N          3.143            2.478     31.21    688.62
         N          3.134            2.478     31.22    688.70
         N          3.134            2.478     31.22    688.70
         N          3.135            2.478     31.22    688.68
         N          3.134            2.478     31.22    688.70
         B          3.336            3.039     62.89   2506.00
         Cr1        0.685            3.252   1346.22 124240.78
         Cr2        0.685            3.252   1346.22 124240.78

         Molecular C6 ( Ry / a.u.^6 ) =     78761.09


     Subspace diagonalization in iterative solution of the eigenvalue problem:
     one sub-group per band group will be used
     scalapack distributed-memory algorithm (size of sub-group:  6*  6 procs)

 
     Parallelization info
     --------------------
     sticks:   dense  smooth     PW     G-vecs:    dense   smooth      PW
     Min         235      98     26                36277     9874    1408
     Max         236      99     27                36282     9883    1425
     Sum       11311    4741   1285              1741401   474235   68095
 


     bravais-lattice index     =            4
     lattice parameter (alat)  =      18.9275  a.u.
     unit-cell volume          =   10553.3021 (a.u.)^3
     number of atoms/cell      =           34
     number of atomic types    =            4
     number of electrons       =       156.00
     number of Kohn-Sham states=           94
     kinetic-energy cutoff     =      48.0000  Ry
     charge density cutoff     =     457.0000  Ry
     scf convergence threshold =      1.0E-07
     mixing beta               =       0.5000
     number of iterations used =            8  plain     mixing
     Exchange-correlation= SLA  PW   PBX  PBC
                           (   1   4   3   4   0   0   0)

     celldm(1)=  18.927497  celldm(2)=   0.000000  celldm(3)=   1.797125
     celldm(4)=   0.000000  celldm(5)=   0.000000  celldm(6)=   0.000000

     crystal axes: (cart. coord. in units of alat)
               a(1) = (   1.000000   0.000000   0.000000 )  
               a(2) = (  -0.500000   0.866025   0.000000 )  
               a(3) = (   0.000000   0.000000   1.797125 )  

     reciprocal axes: (cart. coord. in units 2 pi/alat)
               b(1) = (  1.000000  0.577350  0.000000 )  
               b(2) = (  0.000000  1.154701  0.000000 )  
               b(3) = (  0.000000  0.000000  0.556444 )  


     PseudoPot. # 1 for B  read from file:
     /home/sf05/q-e-qe-6.7MaX-Release/pseudo/B.pbe-n-kjpaw_psl.1.0.0.UPF
     MD5 check sum: d9c678ba5d3b2fd7b74e61139c9288d8
     Pseudo is Projector augmented-wave + core cor, Zval =  3.0
     Generated using "atomic" code by A. Dal Corso  v.5.1.2
     Shape of augmentation charge: PSQ
     Using radial grid of 1059 points,  4 beta functions with: 
                l(1) =   0
                l(2) =   0
                l(3) =   1
                l(4) =   1
     Q(r) pseudized with 0 coefficients 


     PseudoPot. # 2 for N  read from file:
     /home/sf05/q-e-qe-6.7MaX-Release/pseudo/N.pbe-n-kjpaw_psl.1.0.0.UPF
     MD5 check sum: e0e4e94a9c4025c5b51bd7d8793849bd
     Pseudo is Projector augmented-wave + core cor, Zval =  5.0
     Generated using "atomic" code by A. Dal Corso  v.5.1.2
     Shape of augmentation charge: PSQ
     Using radial grid of 1085 points,  4 beta functions with: 
                l(1) =   0
                l(2) =   0
                l(3) =   1
                l(4) =   1
     Q(r) pseudized with 0 coefficients 


     PseudoPot. # 3 for Cr read from file:
     /home/sf05/q-e-qe-6.7MaX-Release/pseudo/Cr.pbe-spn-kjpaw_psl.1.0.0.UPF
     MD5 check sum: 198f1a2427a48552563eee314eba32ba
     Pseudo is Projector augmented-wave + core cor, Zval = 14.0
     Generated using &quot;atomic&quot; code by A. Dal Corso  v.6.3
     Shape of augmentation charge: PSQ
     Using radial grid of 1183 points,  6 beta functions with: 
                l(1) =   0
                l(2) =   0
                l(3) =   1
                l(4) =   1
                l(5) =   2
                l(6) =   2
     Q(r) pseudized with 0 coefficients 


     PseudoPot. # 4 for Cr read from file:
     /home/sf05/q-e-qe-6.7MaX-Release/pseudo/Cr.pbe-spn-kjpaw_psl.1.0.0.UPF
     MD5 check sum: 198f1a2427a48552563eee314eba32ba
     Pseudo is Projector augmented-wave + core cor, Zval = 14.0
     Generated using &quot;atomic&quot; code by A. Dal Corso  v.6.3
     Shape of augmentation charge: PSQ
     Using radial grid of 1183 points,  6 beta functions with: 
                l(1) =   0
                l(2) =   0
                l(3) =   1
                l(4) =   1
                l(5) =   2
                l(6) =   2
     Q(r) pseudized with 0 coefficients 


     atomic species   valence    mass     pseudopotential
        B              3.00    10.81100     B ( 1.00)
        N              5.00    14.00674     N ( 1.00)
        Cr1           14.00    51.99610     Cr( 1.00)
        Cr2           14.00    51.99610     Cr( 1.00)

     Starting magnetic structure 
     atomic species   magnetization
        B            0.000
        N            0.000
        Cr1          1.000
        Cr2          1.000

     No symmetry found



   Cartesian axes

     site n.     atom                  positions (alat units)
         1           B   tau(   1) = (  -0.1250000   0.2165064   0.8985623  )
         2           B   tau(   2) = (   0.3750000   0.6495191   0.8985623  )
         3           B   tau(   3) = (   0.2500000   0.0000000   0.8985623  )
         4           B   tau(   4) = (   0.7500000   0.0000000   0.8985623  )
         5           B   tau(   5) = (   0.1250000   0.2165064   0.8985623  )
         6           B   tau(   6) = (  -0.3750000   0.6495191   0.8985623  )
         7           N   tau(   7) = (   0.7500005   0.2886748   0.8985623  )
         8           N   tau(   8) = (   0.3750005   0.5051812   0.8985623  )
         9           N   tau(   9) = (   0.3750005   0.0721685   0.8985623  )
        10           N   tau(  10) = (   0.6250005   0.0721685   0.8985623  )
        11           N   tau(  11) = (   0.2500005   0.2886748   0.8985623  )
        12           N   tau(  12) = (   0.6250005   0.5051812   0.8985623  )
        13           N   tau(  13) = (   0.0000005   0.2886748   0.8985623  )
        14           N   tau(  14) = (   0.2500005   0.7216875   0.8985623  )
        15           N   tau(  15) = (  -0.2499995   0.7216875   0.8985623  )
        16           B   tau(  16) = (   0.0000000   0.4330127   0.8985623  )
        17           B   tau(  17) = (   0.1250000   0.6495191   0.8985623  )
        18           B   tau(  18) = (  -0.1250000   0.6495191   0.8985623  )
        19           B   tau(  19) = (   0.3750000   0.2165064   0.8985623  )
        20           B   tau(  20) = (   0.6250000   0.2165064   0.8985623  )
        21           B   tau(  21) = (   0.5000000   0.4330127   0.8985623  )
        22           N   tau(  22) = (   0.5000005   0.2886748   0.8985623  )
        23           B   tau(  23) = (  -0.2500000   0.4330127   0.8985623  )
        24           B   tau(  24) = (   0.2500000   0.4330127   0.8985623  )
        25           B   tau(  25) = (   0.5000000   0.0000000   0.8985623  )
        26           N   tau(  26) = (  -0.1249995   0.5051812   0.8985623  )
        27           N   tau(  27) = (   0.1250005   0.5051812   0.8985623  )
        28           N   tau(  28) = (   0.0000005   0.7216875   0.8985623  )
        29           N   tau(  29) = (   0.5000005   0.7216875   0.8985623  )
        30           N   tau(  30) = (   0.1250005   0.0721685   0.8985623  )
        31           N   tau(  31) = (   0.8750005   0.0721685   0.8985623  )
        32           B   tau(  32) = (   0.0000000   0.0000000   0.8985623  )
        33           Cr1 tau(  33) = (   0.3930000   0.3464102   1.2040735  )
        34           Cr2 tau(  34) = (   0.1070000   0.3464102   1.2040735  )

     number of k points=    15  Gaussian smearing, width (Ry)=  0.0000
                       cart. coord. in units 2pi/alat
        k(    1) = (   0.1666667   0.2886751   0.0000000), wk =   0.0740741
        k(    2) = (   0.1666667  -0.4811252   0.0000000), wk =   0.0740741
        k(    3) = (   0.1666667  -0.0962250   0.0000000), wk =   0.0740741
        k(    4) = (  -0.5000000  -0.8660254   0.0000000), wk =   0.0370370
        k(    5) = (  -0.1666667   0.2886751   0.0000000), wk =   0.0740741
        k(    6) = (   0.3333333   0.0000000   0.0000000), wk =   0.0740741
        k(    7) = (  -0.1666667  -0.4811252   0.0000000), wk =   0.0740741
        k(    8) = (   0.5000000  -0.0962250   0.0000000), wk =   0.0740741
        k(    9) = (  -0.3333333  -0.3849002   0.0000000), wk =   0.0740741
        k(   10) = (   0.5000000   0.0962250   0.0000000), wk =   0.0740741
        k(   11) = (  -0.3333333   0.3849002   0.0000000), wk =   0.0740741
        k(   12) = (  -0.1666667  -0.0962250   0.0000000), wk =   0.0740741
        k(   13) = (  -0.0000000  -0.1924501   0.0000000), wk =   0.0740741
        k(   14) = (   0.5000000  -0.8660254   0.0000000), wk =   0.0370370
        k(   15) = (  -1.0000000   0.0000000   0.0000000), wk =   0.0370370

     Dense  grid:  1741401 G-vectors     FFT dimensions: ( 135, 135, 240)

     Smooth grid:   474235 G-vectors     FFT dimensions: (  90,  90, 160)

     Estimated max dynamical RAM per process >     218.62 MB

     Estimated total dynamical RAM >      10.25 GB
     Generating pointlists ...
     new r_m :   0.0595 (alat units)  1.1269 (a.u.) for type    1
     new r_m :   0.0595 (alat units)  1.1269 (a.u.) for type    2
     new r_m :   0.1180 (alat units)  2.2330 (a.u.) for type    3
     new r_m :   0.1180 (alat units)  2.2330 (a.u.) for type    4

     Initial potential from superposition of free atoms

     starting charge  155.99382, renormalised to  156.00000

     negative rho (up, down):  6.713E-03 4.655E-04
     Starting wfcs are  148 randomized atomic wfcs
     Checking if some PAW data can be deallocated... 

     total cpu time spent up to now is       20.6 secs

     Self-consistent Calculation

     iteration #  1     ecut=    48.00 Ry     beta= 0.50
     Davidson diagonalization with overlap
     ethr =  1.00E-02,  avg # of iterations =  2.8

     negative rho (up, down):  4.898E-03 2.920E-03

     total cpu time spent up to now is       64.3 secs

     total energy              =   -1130.73755336 Ry
     estimated scf accuracy    <      11.36883925 Ry

     total magnetization       =    12.00 Bohr mag/cell
     absolute magnetization    =    12.12 Bohr mag/cell

     iteration #  2     ecut=    48.00 Ry     beta= 0.50
     Davidson diagonalization with overlap
     ethr =  7.29E-03,  avg # of iterations =  2.8

     negative rho (up, down):  8.854E-03 7.954E-03

     total cpu time spent up to now is      105.2 secs

     total energy              =   -1132.92308385 Ry
     estimated scf accuracy    <       3.77607629 Ry

     total magnetization       =    10.00 Bohr mag/cell
     absolute magnetization    =    10.08 Bohr mag/cell

     iteration #  3     ecut=    48.00 Ry     beta= 0.50
     Davidson diagonalization with overlap
     ethr =  2.42E-03,  avg # of iterations =  7.1

     negative rho (up, down):  4.044E-03 4.068E-03

     total cpu time spent up to now is      146.9 secs

     total energy              =   -1133.56789404 Ry
     estimated scf accuracy    <       0.83285857 Ry

     total magnetization       =    12.00 Bohr mag/cell
     absolute magnetization    =    12.06 Bohr mag/cell

     iteration #  4     ecut=    48.00 Ry     beta= 0.50
     Davidson diagonalization with overlap
     ethr =  5.34E-04,  avg # of iterations =  6.5

     negative rho (up, down):  6.732E-03 7.477E-03

     total cpu time spent up to now is      186.9 secs

     total energy              =   -1133.78786603 Ry
     estimated scf accuracy    <       0.43039907 Ry

     total magnetization       =    10.00 Bohr mag/cell
     absolute magnetization    =    10.02 Bohr mag/cell

     iteration #  5     ecut=    48.00 Ry     beta= 0.50
     Davidson diagonalization with overlap
     ethr =  2.76E-04,  avg # of iterations =  6.1

     negative rho (up, down):  4.942E-03 5.272E-03

     total cpu time spent up to now is      227.1 secs

     total energy              =   -1133.81930605 Ry
     estimated scf accuracy    <       0.02632629 Ry

     total magnetization       =    10.00 Bohr mag/cell
     absolute magnetization    =    10.03 Bohr mag/cell

     iteration #  6     ecut=    48.00 Ry     beta= 0.50
     Davidson diagonalization with overlap
     c_bands:  1 eigenvalues not converged
     c_bands:  1 eigenvalues not converged
     c_bands:  1 eigenvalues not converged
     ethr =  1.69E-05,  avg # of iterations = 13.0

     negative rho (up, down):  3.749E-03 3.924E-03

     total cpu time spent up to now is      281.8 secs

     total energy              =   -1133.82357175 Ry
     estimated scf accuracy    <       0.01518691 Ry

     total magnetization       =    10.00 Bohr mag/cell
     absolute magnetization    =    10.03 Bohr mag/cell

     iteration #  7     ecut=    48.00 Ry     beta= 0.50
     Davidson diagonalization with overlap
     ethr =  9.74E-06,  avg # of iterations =  6.4

     negative rho (up, down):  3.456E-03 3.851E-03

     total cpu time spent up to now is      324.2 secs

     total energy              =   -1133.82743034 Ry
     estimated scf accuracy    <       0.00357156 Ry

     total magnetization       =    10.00 Bohr mag/cell
     absolute magnetization    =    10.02 Bohr mag/cell

     iteration #  8     ecut=    48.00 Ry     beta= 0.50
     Davidson diagonalization with overlap
     ethr =  2.29E-06,  avg # of iterations =  8.8

     negative rho (up, down):  3.211E-03 3.727E-03

     total cpu time spent up to now is      368.8 secs

     total energy              =   -1133.82825331 Ry
     estimated scf accuracy    <       0.00077857 Ry

     total magnetization       =    10.00 Bohr mag/cell
     absolute magnetization    =    10.01 Bohr mag/cell

     iteration #  9     ecut=    48.00 Ry     beta= 0.50
     Davidson diagonalization with overlap
     ethr =  4.99E-07,  avg # of iterations =  3.1

     negative rho (up, down):  3.169E-03 3.734E-03

     total cpu time spent up to now is      402.8 secs

     total energy              =   -1133.82847818 Ry
     estimated scf accuracy    <       0.00008644 Ry

     total magnetization       =    10.00 Bohr mag/cell
     absolute magnetization    =    10.01 Bohr mag/cell

     iteration # 10     ecut=    48.00 Ry     beta= 0.50
     Davidson diagonalization with overlap
     ethr =  5.54E-08,  avg # of iterations =  4.0

     negative rho (up, down):  3.148E-03 3.749E-03

     total cpu time spent up to now is      443.7 secs

     total energy              =   -1133.82856137 Ry
     estimated scf accuracy    <       0.00002864 Ry

     total magnetization       =    10.00 Bohr mag/cell
     absolute magnetization    =    10.01 Bohr mag/cell

     iteration # 11     ecut=    48.00 Ry     beta= 0.50
     Davidson diagonalization with overlap
     ethr =  1.84E-08,  avg # of iterations =  4.2

     negative rho (up, down):  3.143E-03 3.769E-03

     total cpu time spent up to now is      480.4 secs

     total energy              =   -1133.82859459 Ry
     estimated scf accuracy    <       0.00000747 Ry

     total magnetization       =    10.00 Bohr mag/cell
     absolute magnetization    =    10.01 Bohr mag/cell

     iteration # 12     ecut=    48.00 Ry     beta= 0.50
     Davidson diagonalization with overlap
     ethr =  4.79E-09,  avg # of iterations =  4.9

     negative rho (up, down):  3.139E-03 3.790E-03

     total cpu time spent up to now is      518.4 secs

     total energy              =   -1133.82860665 Ry
     estimated scf accuracy    <       0.00000345 Ry

     total magnetization       =    10.00 Bohr mag/cell
     absolute magnetization    =    10.01 Bohr mag/cell

     iteration # 13     ecut=    48.00 Ry     beta= 0.50
     Davidson diagonalization with overlap
     ethr =  2.21E-09,  avg # of iterations =  4.8

     negative rho (up, down):  3.135E-03 3.794E-03

     total cpu time spent up to now is      555.7 secs

     total energy              =   -1133.82861230 Ry
     estimated scf accuracy    <       0.00000027 Ry

     total magnetization       =    10.00 Bohr mag/cell
     absolute magnetization    =    10.01 Bohr mag/cell

     iteration # 14     ecut=    48.00 Ry     beta= 0.50
     Davidson diagonalization with overlap
     ethr =  1.73E-10,  avg # of iterations =  5.3

     negative rho (up, down):  3.133E-03 3.795E-03
 
     Magnetic moment per site:
     atom:    1    charge:    0.8808    magn:    0.0008    constr:    0.0000
     atom:    2    charge:    0.8802    magn:    0.0006    constr:    0.0000
     atom:    3    charge:    0.8800    magn:    0.0001    constr:    0.0000
     atom:    4    charge:    0.8804    magn:    0.0001    constr:    0.0000
     atom:    5    charge:    0.8801    magn:    0.0002    constr:    0.0000
     atom:    6    charge:    0.8804    magn:    0.0001    constr:    0.0000
     atom:    7    charge:    2.8610    magn:    0.0004    constr:    0.0000
     atom:    8    charge:    2.8607    magn:    0.0043    constr:    0.0000
     atom:    9    charge:    2.8607    magn:    0.0016    constr:    0.0000
     atom:   10    charge:    2.8609    magn:    0.0004    constr:    0.0000
     atom:   11    charge:    2.8605    magn:    0.0071    constr:    0.0000
     atom:   12    charge:    2.8610    magn:    0.0009    constr:    0.0000
     atom:   13    charge:    2.8596    magn:    0.0052    constr:    0.0000
     atom:   14    charge:    2.8598    magn:    0.0003    constr:    0.0000
     atom:   15    charge:    2.8599    magn:    0.0000    constr:    0.0000
     atom:   16    charge:    0.8805    magn:   -0.0000    constr:    0.0000
     atom:   17    charge:    0.8799    magn:    0.0006    constr:    0.0000
     atom:   18    charge:    0.8800    magn:    0.0001    constr:    0.0000
     atom:   19    charge:    0.8796    magn:    0.0002    constr:    0.0000
     atom:   20    charge:    0.8802    magn:    0.0008    constr:    0.0000
     atom:   21    charge:    0.8802    magn:   -0.0000    constr:    0.0000
     atom:   22    charge:    2.8608    magn:    0.0052    constr:    0.0000
     atom:   23    charge:    0.8804    magn:    0.0001    constr:    0.0000
     atom:   24    charge:    0.8789    magn:   -0.0002    constr:    0.0000
     atom:   25    charge:    0.8799    magn:    0.0001    constr:    0.0000
     atom:   26    charge:    2.8599    magn:    0.0009    constr:    0.0000
     atom:   27    charge:    2.8595    magn:    0.0043    constr:    0.0000
     atom:   28    charge:    2.8598    magn:    0.0002    constr:    0.0000
     atom:   29    charge:    2.8596    magn:    0.0002    constr:    0.0000
     atom:   30    charge:    2.8594    magn:    0.0016    constr:    0.0000
     atom:   31    charge:    2.8596    magn:    0.0004    constr:    0.0000
     atom:   32    charge:    0.8802    magn:    0.0001    constr:    0.0000
     atom:   33    charge:   12.5473    magn:    4.2592    constr:    0.0000
     atom:   34    charge:   12.5472    magn:    4.2591    constr:    0.0000

     total cpu time spent up to now is      595.0 secs

     End of self-consistent calculation

 ------ SPIN UP ------------


          k = 0.1667 0.2887 0.0000 ( 59267 PWs)   bands (ev):

   -72.8777 -72.8706 -44.4230 -44.3509 -44.2819 -44.2749 -44.2513 -44.2440
   -21.2518 -20.6660 -20.6600 -20.1140 -20.0963 -19.5928 -19.5867 -19.1040
   -18.7030 -18.6956 -18.4665 -18.4504 -18.1994 -18.0901 -18.0814 -17.8539
   -12.4894 -12.2147 -12.2030 -11.8261 -11.8220 -11.6633 -11.1969 -11.1937
   -10.3968 -10.3722 -10.1226 -10.1191  -9.5937  -9.5927  -8.8444  -8.8300
    -8.8248  -8.7720  -8.7652  -8.6009  -8.2016  -8.0540  -8.0216  -7.8355
    -7.8304  -7.4433  -7.4413  -7.2919  -7.2566  -7.2133  -7.2107  -6.9695
    -6.9553  -6.5679  -6.5438  -6.1586  -6.1573  -5.8751  -5.4230  -5.2964
    -5.2820  -5.2047  -4.9228  -4.8978  -4.5098  -4.3607  -4.3434  -3.9831
    -2.8449  -2.0237  -1.9476  -1.8245  -1.6289  -1.5936  -1.4875  -1.4718
    -1.4207  -1.3798  -1.3214  -0.7333   0.6750   0.9481   1.0607   1.1601
     1.2728   1.4633   1.4956   1.5804   1.5987   1.7762

          k = 0.1667-0.4811 0.0000 ( 59291 PWs)   bands (ev):

   -72.8777 -72.8706 -44.4231 -44.3509 -44.2819 -44.2749 -44.2513 -44.2440
   -21.1219 -20.9162 -20.7279 -20.1657 -19.8089 -19.4712 -19.3211 -19.1798
   -19.0186 -18.7839 -18.6466 -18.5476 -18.1543 -18.0923 -17.9268 -17.7281
   -12.3537 -12.1187 -12.0492 -11.9109 -11.6854 -11.6631 -11.5572 -10.9463
   -10.8953 -10.6286 -10.5273  -9.8652  -9.6979  -9.3406  -9.1156  -8.6722
    -8.6278  -8.5579  -8.3934  -8.3702  -8.1661  -8.1276  -8.0680  -8.0544
    -7.6937  -7.6280  -7.4991  -7.4783  -7.3605  -7.1754  -7.0721  -6.8640
    -6.6266  -6.3928  -6.1802  -6.1623  -5.9769  -5.9337  -5.7883  -5.7483
    -5.4558  -5.4028  -5.2146  -5.0442  -4.4486  -4.3501  -4.0933  -3.7706
    -2.8418  -2.0238  -1.9476  -1.8209  -1.6279  -1.5932  -1.4904  -1.4724
    -1.4209  -1.3796  -1.3221  -0.7376   0.5848   0.9367   1.0786   1.1182
     1.2133   1.2355   1.3594   1.8376   1.9077   2.1221

          k = 0.1667-0.0962 0.0000 ( 59226 PWs)   bands (ev):

   -72.8777 -72.8706 -44.4230 -44.3509 -44.2820 -44.2749 -44.2513 -44.2440
   -21.3182 -20.5412 -20.3501 -20.3432 -19.9929 -19.9859 -19.8097 -18.7333
   -18.7283 -18.3829 -18.3673 -18.3626 -18.2773 -18.2614 -18.0812 -18.0753
   -12.5151 -12.5046 -12.4127 -11.5864 -11.5811 -11.4357 -11.4205 -10.9308
   -10.9284  -9.9333  -9.9316  -9.6807  -9.3826  -9.3743  -9.2346  -9.2329
    -9.0465  -9.0448  -8.9275  -8.3276  -8.3267  -7.9077  -7.9023  -7.8856
    -7.8497  -7.7749  -7.6123  -7.5865  -7.1377  -7.0974  -6.9642  -6.8925
    -6.8901  -6.8544  -6.5352  -6.5333  -6.2620  -5.3509  -5.3245  -5.1478
    -5.0698  -4.8148  -4.7945  -4.7614  -4.6240  -4.6030  -4.3563  -4.3354
    -2.8483  -2.0238  -1.9475  -1.8280  -1.6309  -1.5939  -1.4847  -1.4711
    -1.4204  -1.3802  -1.3208  -0.7288   0.7842   0.9223   1.0101   1.1796
     1.2678   1.3245   1.5700   1.5806   1.6958   1.9114

          k =-0.5000-0.8660 0.0000 ( 59292 PWs)   bands (ev):

   -72.8777 -72.8706 -44.4231 -44.3510 -44.2820 -44.2749 -44.2512 -44.2440
   -21.0560 -21.0503 -20.4742 -20.4684 -19.4347 -19.4282 -19.4150 -19.4111
   -18.9977 -18.9921 -18.3328 -18.3303 -18.3209 -18.3099 -17.7974 -17.7931
   -12.0774 -12.0738 -12.0687 -12.0604 -11.8830 -11.8779 -11.3343 -11.3317
   -10.2392 -10.2374 -10.1406 -10.1360 -10.1341 -10.1306  -8.5909  -8.5550
    -8.5527  -8.5507  -8.5494  -8.5429  -7.8690  -7.8671  -7.8657  -7.8625
    -7.8268  -7.8246  -7.7836  -7.7586  -7.4961  -7.4892  -6.6152  -6.6134
    -6.3625  -6.3265  -6.3219  -6.2961  -6.1956  -6.1907  -5.7100  -5.7056
    -5.5515  -5.5450  -4.7309  -4.7160  -4.7117  -4.6920  -3.8900  -3.8726
    -2.8292  -2.0220  -1.9479  -1.8233  -1.6284  -1.5945  -1.4912  -1.4737
    -1.4252  -1.3839  -1.3206  -0.8574   0.7690   1.0559   1.0918   1.1859
     1.4174   1.5348   1.5861   1.6128   1.6411   1.7636

          k =-0.1667 0.2887 0.0000 ( 59267 PWs)   bands (ev):

   -72.8777 -72.8706 -44.4230 -44.3509 -44.2819 -44.2749 -44.2513 -44.2440
   -21.2518 -20.6660 -20.6599 -20.1140 -20.0963 -19.5928 -19.5867 -19.1040
   -18.7030 -18.6956 -18.4665 -18.4504 -18.1994 -18.0901 -18.0813 -17.8539
   -12.4893 -12.2147 -12.2030 -11.8261 -11.8220 -11.6633 -11.1969 -11.1936
   -10.3969 -10.3722 -10.1227 -10.1191  -9.5938  -9.5927  -8.8444  -8.8300
    -8.8247  -8.7720  -8.7652  -8.6009  -8.2017  -8.0540  -8.0216  -7.8354
    -7.8303  -7.4433  -7.4413  -7.2919  -7.2566  -7.2133  -7.2107  -6.9696
    -6.9554  -6.5679  -6.5438  -6.1586  -6.1572  -5.8750  -5.4231  -5.2965
    -5.2820  -5.2046  -4.9228  -4.8978  -4.5098  -4.3607  -4.3434  -3.9831
    -2.8449  -2.0237  -1.9476  -1.8245  -1.6289  -1.5936  -1.4875  -1.4718
    -1.4207  -1.3798  -1.3214  -0.7333   0.6750   0.9481   1.0607   1.1601
     1.2727   1.4633   1.4956   1.5804   1.5987   1.7763

          k = 0.3333 0.0000 0.0000 ( 59267 PWs)   bands (ev):

   -72.8777 -72.8706 -44.4230 -44.3509 -44.2820 -44.2749 -44.2512 -44.2440
   -21.2513 -20.6926 -20.6332 -20.1138 -20.0948 -19.6198 -19.5617 -19.1063
   -18.7202 -18.6729 -18.4686 -18.4505 -18.1947 -18.1137 -18.0649 -17.8529
   -12.4882 -12.2163 -12.2019 -11.8362 -11.8148 -11.6613 -11.2154 -11.1749
   -10.3960 -10.3719 -10.1368 -10.1061  -9.6004  -9.5847  -8.8466  -8.8318
    -8.8179  -8.7942  -8.7443  -8.6016  -8.2038  -8.1071  -7.9678  -7.8337
    -7.8295  -7.4498  -7.4348  -7.2967  -7.2462  -7.2231  -7.2002  -6.9708
    -6.9559  -6.6233  -6.4958  -6.1614  -6.1535  -5.8821  -5.4231  -5.3136
    -5.2526  -5.2050  -4.9330  -4.8905  -4.5006  -4.3914  -4.3261  -3.9818
    -2.8369  -2.0224  -1.9478  -1.8261  -1.6303  -1.5944  -1.4879  -1.4723
    -1.4228  -1.3829  -1.3204  -0.8166   0.8039   1.0469   1.1569   1.2410
     1.2943   1.4457   1.5091   1.5584   1.5887   1.7637

          k =-0.1667-0.4811 0.0000 ( 59291 PWs)   bands (ev):

   -72.8777 -72.8706 -44.4231 -44.3509 -44.2819 -44.2749 -44.2513 -44.2440
   -21.1219 -20.9162 -20.7279 -20.1657 -19.8089 -19.4712 -19.3211 -19.1798
   -19.0186 -18.7839 -18.6466 -18.5476 -18.1543 -18.0923 -17.9268 -17.7281
   -12.3537 -12.1186 -12.0492 -11.9109 -11.6854 -11.6631 -11.5573 -10.9463
   -10.8953 -10.6286 -10.5273  -9.8651  -9.6979  -9.3407  -9.1157  -8.6722
    -8.6277  -8.5580  -8.3933  -8.3702  -8.1660  -8.1276  -8.0681  -8.0545
    -7.6937  -7.6280  -7.4990  -7.4783  -7.3605  -7.1754  -7.0721  -6.8640
    -6.6267  -6.3928  -6.1803  -6.1623  -5.9769  -5.9337  -5.7883  -5.7483
    -5.4558  -5.4028  -5.2146  -5.0442  -4.4486  -4.3501  -4.0933  -3.7706
    -2.8418  -2.0238  -1.9476  -1.8209  -1.6279  -1.5932  -1.4904  -1.4724
    -1.4209  -1.3796  -1.3221  -0.7376   0.5848   0.9367   1.0786   1.1182
     1.2133   1.2354   1.3595   1.8376   1.9078   2.1218

          k = 0.5000-0.0962 0.0000 ( 59291 PWs)   bands (ev):

   -72.8777 -72.8706 -44.4230 -44.3509 -44.2819 -44.2749 -44.2513 -44.2440
   -21.1186 -20.9250 -20.7221 -20.1638 -19.8090 -19.4729 -19.3285 -19.1738
   -19.0199 -18.7842 -18.6355 -18.5547 -18.1414 -18.1104 -17.9230 -17.7278
   -12.3516 -12.1195 -12.0471 -11.9158 -11.6993 -11.6471 -11.5594 -10.9474
   -10.8922 -10.6262 -10.5303  -9.8630  -9.6984  -9.3416  -9.1150  -8.6608
    -8.6286  -8.5555  -8.4036  -8.3980  -8.1638  -8.1065  -8.0820  -8.0414
    -7.6892  -7.6287  -7.4979  -7.4799  -7.3539  -7.1767  -7.0732  -6.8638
    -6.6271  -6.4004  -6.2006  -6.1617  -5.9603  -5.9332  -5.7874  -5.7510
    -5.4571  -5.4019  -5.1895  -5.0602  -4.4239  -4.3824  -4.0886  -3.7705
    -2.8293  -2.0220  -1.9479  -1.8233  -1.6289  -1.5946  -1.4912  -1.4737
    -1.4251  -1.3840  -1.3206  -0.8572   0.7532   1.0368   1.1171   1.1812
     1.2824   1.3352   1.5204   1.7568   1.8391   1.8774

          k =-0.3333-0.3849 0.0000 ( 59291 PWs)   bands (ev):

   -72.8777 -72.8706 -44.4230 -44.3509 -44.2819 -44.2749 -44.2513 -44.2440
   -21.1198 -20.9219 -20.7243 -20.1636 -19.8111 -19.4711 -19.3228 -19.1774
   -19.0234 -18.7821 -18.6371 -18.5539 -18.1440 -18.1072 -17.9232 -17.7280
   -12.3530 -12.1164 -12.0502 -11.9137 -11.6871 -11.6611 -11.5584 -10.9470
   -10.8925 -10.6256 -10.5307  -9.8632  -9.6985  -9.3416  -9.1161  -8.6645
    -8.6269  -8.5576  -8.3955  -8.3909  -8.1655  -8.1144  -8.0678  -8.0573
    -7.6897  -7.6267  -7.5054  -7.4728  -7.3527  -7.1768  -7.0738  -6.8717
    -6.6250  -6.3932  -6.1829  -6.1645  -5.9723  -5.9317  -5.7876  -5.7622
    -5.4569  -5.3956  -5.1902  -5.0610  -4.4273  -4.3788  -4.0881  -3.7707
    -2.8334  -2.0227  -1.9478  -1.8225  -1.6282  -1.5941  -1.4908  -1.4734
    -1.4240  -1.3824  -1.3211  -0.8206   0.6948   1.0391   1.1090   1.1537
     1.2316   1.3499   1.3771   1.8175   1.8915   1.9204

          k = 0.5000 0.0962 0.0000 ( 59291 PWs)   bands (ev):

   -72.8777 -72.8706 -44.4230 -44.3509 -44.2819 -44.2749 -44.2513 -44.2440
   -21.1186 -20.9250 -20.7221 -20.1638 -19.8090 -19.4729 -19.3285 -19.1738
   -19.0199 -18.7842 -18.6355 -18.5547 -18.1415 -18.1104 -17.9230 -17.7278
   -12.3516 -12.1195 -12.0471 -11.9158 -11.6992 -11.6471 -11.5594 -10.9474
   -10.8922 -10.6262 -10.5303  -9.8630  -9.6985  -9.3416  -9.1150  -8.6608
    -8.6286  -8.5555  -8.4036  -8.3980  -8.1638  -8.1065  -8.0820  -8.0414
    -7.6892  -7.6286  -7.4979  -7.4799  -7.3539  -7.1767  -7.0731  -6.8638
    -6.6271  -6.4004  -6.2006  -6.1616  -5.9603  -5.9331  -5.7875  -5.7510
    -5.4571  -5.4019  -5.1895  -5.0602  -4.4239  -4.3824  -4.0886  -3.7705
    -2.8293  -2.0220  -1.9479  -1.8233  -1.6289  -1.5946  -1.4912  -1.4737
    -1.4251  -1.3840  -1.3206  -0.8572   0.7532   1.0368   1.1171   1.1812
     1.2824   1.3351   1.5204   1.7568   1.8391   1.8774

          k =-0.3333 0.3849 0.0000 ( 59291 PWs)   bands (ev):

   -72.8777 -72.8706 -44.4230 -44.3509 -44.2819 -44.2749 -44.2513 -44.2440
   -21.1198 -20.9219 -20.7243 -20.1636 -19.8111 -19.4711 -19.3228 -19.1774
   -19.0234 -18.7821 -18.6371 -18.5539 -18.1440 -18.1072 -17.9232 -17.7280
   -12.3529 -12.1164 -12.0502 -11.9137 -11.6871 -11.6612 -11.5584 -10.9470
   -10.8925 -10.6256 -10.5307  -9.8633  -9.6985  -9.3416  -9.1161  -8.6645
    -8.6269  -8.5576  -8.3955  -8.3909  -8.1656  -8.1144  -8.0678  -8.0572
    -7.6897  -7.6267  -7.5054  -7.4728  -7.3527  -7.1767  -7.0739  -6.8717
    -6.6251  -6.3932  -6.1829  -6.1645  -5.9723  -5.9318  -5.7875  -5.7622
    -5.4568  -5.3955  -5.1902  -5.0610  -4.4274  -4.3788  -4.0881  -3.7707
    -2.8334  -2.0227  -1.9478  -1.8225  -1.6282  -1.5941  -1.4908  -1.4734
    -1.4240  -1.3824  -1.3211  -0.8206   0.6948   1.0391   1.1090   1.1537
     1.2316   1.3499   1.3771   1.8175   1.8916   1.9204

          k =-0.1667-0.0962 0.0000 ( 59226 PWs)   bands (ev):

   -72.8777 -72.8706 -44.4230 -44.3509 -44.2820 -44.2749 -44.2513 -44.2440
   -21.3182 -20.5412 -20.3501 -20.3432 -19.9929 -19.9859 -19.8097 -18.7333
   -18.7283 -18.3829 -18.3673 -18.3626 -18.2773 -18.2614 -18.0812 -18.0753
   -12.5151 -12.5046 -12.4127 -11.5864 -11.5811 -11.4357 -11.4205 -10.9308
   -10.9284  -9.9333  -9.9316  -9.6807  -9.3826  -9.3743  -9.2346  -9.2329
    -9.0465  -9.0448  -8.9275  -8.3276  -8.3267  -7.9077  -7.9023  -7.8856
    -7.8496  -7.7749  -7.6123  -7.5865  -7.1377  -7.0974  -6.9642  -6.8925
    -6.8901  -6.8544  -6.5352  -6.5333  -6.2621  -5.3509  -5.3245  -5.1477
    -5.0699  -4.8148  -4.7945  -4.7614  -4.6240  -4.6030  -4.3564  -4.3354
    -2.8483  -2.0238  -1.9475  -1.8280  -1.6309  -1.5939  -1.4847  -1.4711
    -1.4204  -1.3802  -1.3208  -0.7288   0.7842   0.9223   1.0101   1.1796
     1.2678   1.3246   1.5701   1.5806   1.6959   1.9114

          k =-0.0000-0.1925 0.0000 ( 59226 PWs)   bands (ev):

   -72.8777 -72.8706 -44.4230 -44.3509 -44.2820 -44.2749 -44.2512 -44.2440
   -21.3183 -20.5353 -20.3634 -20.3400 -19.9940 -19.9762 -19.8140 -18.7385
   -18.7185 -18.4084 -18.3701 -18.3556 -18.2579 -18.2579 -18.0902 -18.0724
   -12.5170 -12.5036 -12.4118 -11.5913 -11.5771 -11.4347 -11.4192 -10.9333
   -10.9277  -9.9365  -9.9288  -9.6807  -9.3826  -9.3722  -9.2361  -9.2325
    -9.0462  -9.0457  -8.9282  -8.3298  -8.3237  -7.9078  -7.9016  -7.8659
    -7.8473  -7.7769  -7.6436  -7.5916  -7.1190  -7.0870  -6.9625  -6.8965
    -6.8879  -6.8678  -6.5384  -6.5291  -6.2628  -5.3505  -5.3141  -5.1480
    -5.0696  -4.8653  -4.7904  -4.7524  -4.5975  -4.5921  -4.3671  -4.3353
    -2.8523  -2.0245  -1.9474  -1.8271  -1.6302  -1.5934  -1.4847  -1.4710
    -1.4195  -1.3786  -1.3212  -0.6802   0.6936   0.8492   1.0069   1.1532
     1.2189   1.3796   1.5526   1.6041   1.6897   1.9624

          k = 0.5000-0.8660 0.0000 ( 59292 PWs)   bands (ev):

   -72.8777 -72.8706 -44.4231 -44.3510 -44.2820 -44.2749 -44.2512 -44.2440
   -21.0560 -21.0502 -20.4742 -20.4684 -19.4347 -19.4282 -19.4150 -19.4111
   -18.9978 -18.9920 -18.3329 -18.3302 -18.3210 -18.3098 -17.7974 -17.7931
   -12.0774 -12.0738 -12.0688 -12.0603 -11.8830 -11.8779 -11.3343 -11.3316
   -10.2392 -10.2375 -10.1406 -10.1360 -10.1341 -10.1307  -8.5909  -8.5550
    -8.5528  -8.5507  -8.5493  -8.5428  -7.8690  -7.8671  -7.8657  -7.8625
    -7.8268  -7.8246  -7.7836  -7.7586  -7.4962  -7.4892  -6.6151  -6.6133
    -6.3625  -6.3265  -6.3219  -6.2961  -6.1956  -6.1905  -5.7100  -5.7056
    -5.5516  -5.5450  -4.7309  -4.7159  -4.7117  -4.6920  -3.8900  -3.8726
    -2.8292  -2.0220  -1.9479  -1.8233  -1.6284  -1.5945  -1.4912  -1.4737
    -1.4252  -1.3839  -1.3206  -0.8574   0.7690   1.0559   1.0918   1.1859
     1.4174   1.5347   1.5861   1.6129   1.6412   1.7633

          k =-1.0000 0.0000 0.0000 ( 59292 PWs)   bands (ev):

   -72.8777 -72.8706 -44.4231 -44.3510 -44.2820 -44.2749 -44.2513 -44.2439
   -21.0813 -21.0217 -20.4849 -20.4630 -19.4467 -19.4135 -19.4125 -19.4090
   -19.0201 -18.9726 -18.3816 -18.3341 -18.2963 -18.2819 -17.8055 -17.7872
   -12.1172 -12.0777 -12.0475 -12.0342 -11.8892 -11.8719 -11.3557 -11.3116
   -10.2549 -10.2390 -10.1381 -10.1365 -10.1279 -10.1240  -8.6364  -8.5834
    -8.5614  -8.5299  -8.5199  -8.4936  -7.8857  -7.8783  -7.8645  -7.8559
    -7.8216  -7.8160  -7.7989  -7.7581  -7.5202  -7.4679  -6.6195  -6.6059
    -6.3733  -6.3165  -6.3053  -6.2895  -6.2145  -6.1747  -5.7426  -5.6821
    -5.5723  -5.5246  -4.8245  -4.7163  -4.6730  -4.6397  -3.8980  -3.8670
    -2.8459  -2.0241  -1.9476  -1.8201  -1.6278  -1.5928  -1.4904  -1.4718
    -1.4191  -1.3782  -1.3224  -0.6898   0.5421   0.8262   1.0967   1.1189
     1.1467   1.4640   1.5519   1.6219   1.6346   1.9368

 ------ SPIN DOWN ----------


          k = 0.1667 0.2887 0.0000 ( 59267 PWs)   bands (ev):

   -68.6767 -68.6685 -40.3497 -40.2640 -40.1054 -40.0969 -40.0422 -40.0334
   -21.2480 -20.6629 -20.6555 -20.1097 -20.0930 -19.5900 -19.5820 -19.1001
   -18.6995 -18.6904 -18.4623 -18.4468 -18.1948 -18.0866 -18.0776 -17.8497
   -12.4869 -12.2119 -12.2009 -11.8239 -11.8197 -11.6612 -11.1947 -11.1906
   -10.3940 -10.3698 -10.1204 -10.1159  -9.5915  -9.5901  -8.8328  -8.8221
    -8.8192  -8.7701  -8.7624  -8.5986  -8.1993  -8.0306  -8.0118  -7.8329
    -7.8281  -7.4402  -7.4381  -7.2726  -7.2440  -7.2113  -7.2078  -6.9669
    -6.9532  -6.5473  -6.5355  -6.1560  -6.1547  -5.8596  -5.4200  -5.2780
    -5.2670  -5.2021  -4.9080  -4.8860  -4.4941  -4.3463  -4.3335  -3.9697
    -1.4321   0.3823   0.8871   1.0677   1.1080   1.1927   1.2656   1.3266
     1.4163   1.4952   1.5316   1.5715   1.6319   1.7275   1.8793   2.0006
     2.0424   2.1206   2.1504   2.1920   2.2559   2.3279

          k = 0.1667-0.4811 0.0000 ( 59291 PWs)   bands (ev):

   -68.6767 -68.6685 -40.3498 -40.2640 -40.1054 -40.0969 -40.0422 -40.0334
   -21.1177 -20.9130 -20.7239 -20.1618 -19.8052 -19.4674 -19.3174 -19.1756
   -19.0148 -18.7800 -18.6413 -18.5445 -18.1487 -18.0900 -17.9225 -17.7239
   -12.3511 -12.1161 -12.0470 -11.9086 -11.6835 -11.6605 -11.5549 -10.9437
   -10.8924 -10.6258 -10.5249  -9.8621  -9.6955  -9.3378  -9.1132  -8.6496
    -8.6253  -8.5549  -8.3912  -8.3587  -8.1637  -8.1106  -8.0659  -8.0519
    -7.6909  -7.6255  -7.4966  -7.4760  -7.3433  -7.1724  -7.0698  -6.8488
    -6.6235  -6.3779  -6.1651  -6.1597  -5.9617  -5.9306  -5.7856  -5.7339
    -5.4533  -5.3880  -5.1932  -5.0353  -4.4294  -4.3435  -4.0797  -3.7576
    -1.4225   0.3706   0.8596   1.0213   1.0706   1.1301   1.2030   1.2655
     1.3220   1.4627   1.5349   1.7379   1.7957   1.8310   1.8963   2.0796
     2.1224   2.1432   2.1717   2.2141   2.2812   2.3171

          k = 0.1667-0.0962 0.0000 ( 59226 PWs)   bands (ev):

   -68.6767 -68.6685 -40.3497 -40.2640 -40.1054 -40.0969 -40.0422 -40.0334
   -21.3144 -20.5369 -20.3465 -20.3399 -19.9884 -19.9823 -19.8064 -18.7286
   -18.7243 -18.3784 -18.3638 -18.3584 -18.2729 -18.2572 -18.0773 -18.0720
   -12.5124 -12.5024 -12.4104 -11.5839 -11.5790 -11.4329 -11.4184 -10.9281
   -10.9260  -9.9307  -9.9294  -9.6778  -9.3800  -9.3719  -9.2316  -9.2301
    -9.0442  -9.0423  -8.9094  -8.3245  -8.3237  -7.9049  -7.9000  -7.8645
    -7.8457  -7.7726  -7.5963  -7.5761  -7.1139  -7.0864  -6.9616  -6.8899
    -6.8879  -6.8442  -6.5326  -6.5310  -6.2595  -5.3299  -5.3116  -5.1450
    -5.0671  -4.7991  -4.7799  -4.7469  -4.6102  -4.5911  -4.3407  -4.3260
    -1.4417   0.3964   0.9083   1.0298   1.0851   1.1541   1.2047   1.3451
     1.4388   1.5101   1.5888   1.6462   1.7815   1.8291   1.8997   1.9268
     2.0287   2.0765   2.1309   2.1525   2.2145   2.3352

          k =-0.5000-0.8660 0.0000 ( 59292 PWs)   bands (ev):

   -68.6767 -68.6685 -40.3498 -40.2640 -40.1054 -40.0970 -40.0422 -40.0334
   -21.0531 -21.0454 -20.4705 -20.4649 -19.4299 -19.4240 -19.4111 -19.4079
   -18.9952 -18.9870 -18.3279 -18.3263 -18.3197 -18.3036 -17.7930 -17.7893
   -12.0741 -12.0716 -12.0674 -12.0573 -11.8807 -11.8760 -11.3322 -11.3286
   -10.2365 -10.2352 -10.1375 -10.1332 -10.1315 -10.1282  -8.5638  -8.5512
    -8.5499  -8.5477  -8.5425  -8.5390  -7.8664  -7.8646  -7.8631  -7.8602
    -7.8230  -7.8215  -7.7672  -7.7476  -7.4945  -7.4862  -6.6123  -6.6109
    -6.3358  -6.3125  -6.3057  -6.2863  -6.1934  -6.1872  -5.6971  -5.6921
    -5.5497  -5.5416  -4.7129  -4.7040  -4.6896  -4.6875  -3.8742  -3.8626
    -1.3983   0.1322   0.8792   1.0223   1.1258   1.1739   1.2755   1.3985
     1.4643   1.5415   1.5850   1.7093   1.7423   1.8920   1.9246   1.9375
     1.9840   2.0634   2.1826   2.2349   2.2930   2.3562

          k =-0.1667 0.2887 0.0000 ( 59267 PWs)   bands (ev):

   -68.6767 -68.6685 -40.3497 -40.2640 -40.1054 -40.0969 -40.0422 -40.0334
   -21.2480 -20.6630 -20.6555 -20.1097 -20.0930 -19.5900 -19.5819 -19.1001
   -18.6995 -18.6904 -18.4623 -18.4468 -18.1948 -18.0867 -18.0775 -17.8497
   -12.4868 -12.2119 -12.2009 -11.8239 -11.8197 -11.6612 -11.1947 -11.1906
   -10.3940 -10.3697 -10.1204 -10.1159  -9.5915  -9.5901  -8.8328  -8.8220
    -8.8192  -8.7701  -8.7624  -8.5985  -8.1994  -8.0306  -8.0118  -7.8329
    -7.8280  -7.4402  -7.4381  -7.2726  -7.2440  -7.2113  -7.2078  -6.9670
    -6.9532  -6.5473  -6.5355  -6.1561  -6.1546  -5.8596  -5.4201  -5.2780
    -5.2670  -5.2020  -4.9080  -4.8860  -4.4941  -4.3463  -4.3335  -3.9697
    -1.4321   0.3823   0.8871   1.0677   1.1081   1.1927   1.2656   1.3265
     1.4163   1.4953   1.5316   1.5715   1.6319   1.7275   1.8794   2.0006
     2.0425   2.1206   2.1503   2.1919   2.2559   2.3279

          k = 0.3333 0.0000 0.0000 ( 59267 PWs)   bands (ev):

   -68.6767 -68.6685 -40.3497 -40.2640 -40.1054 -40.0969 -40.0422 -40.0334
   -21.2476 -20.6870 -20.6313 -20.1096 -20.0916 -19.6140 -19.5597 -19.1021
   -18.7141 -18.6711 -18.4639 -18.4469 -18.1908 -18.1071 -18.0630 -17.8490
   -12.4860 -12.2128 -12.2003 -11.8331 -11.8131 -11.6593 -11.2121 -11.1732
   -10.3931 -10.3696 -10.1326 -10.1046  -9.5975  -9.5828  -8.8346  -8.8256
    -8.8117  -8.7907  -8.7431  -8.5992  -8.2012  -8.0785  -7.9637  -7.8314
    -7.8273  -7.4457  -7.4326  -7.2754  -7.2370  -7.2201  -7.1986  -6.9677
    -6.9539  -6.5970  -6.4913  -6.1586  -6.1512  -5.8648  -5.4200  -5.2938
    -5.2420  -5.2023  -4.9162  -4.8802  -4.4870  -4.3726  -4.3172  -3.9688
    -1.4167   0.2133   0.9199   1.0440   1.1232   1.2079   1.2286   1.4340
     1.4493   1.4930   1.5514   1.6275   1.7938   1.8694   1.9067   1.9174
     2.0279   2.0767   2.1520   2.1839   2.2755   2.3624

          k =-0.1667-0.4811 0.0000 ( 59291 PWs)   bands (ev):

   -68.6767 -68.6685 -40.3498 -40.2640 -40.1054 -40.0969 -40.0422 -40.0334
   -21.1177 -20.9130 -20.7239 -20.1618 -19.8052 -19.4674 -19.3174 -19.1756
   -19.0148 -18.7800 -18.6413 -18.5445 -18.1487 -18.0900 -17.9225 -17.7239
   -12.3511 -12.1161 -12.0470 -11.9086 -11.6835 -11.6605 -11.5549 -10.9437
   -10.8924 -10.6258 -10.5249  -9.8621  -9.6955  -9.3378  -9.1132  -8.6496
    -8.6252  -8.5549  -8.3911  -8.3587  -8.1636  -8.1106  -8.0659  -8.0520
    -7.6909  -7.6256  -7.4966  -7.4760  -7.3433  -7.1724  -7.0698  -6.8488
    -6.6235  -6.3779  -6.1651  -6.1598  -5.9617  -5.9306  -5.7856  -5.7339
    -5.4533  -5.3880  -5.1932  -5.0353  -4.4294  -4.3435  -4.0797  -3.7576
    -1.4225   0.3706   0.8596   1.0213   1.0706   1.1300   1.2030   1.2655
     1.3220   1.4628   1.5349   1.7379   1.7958   1.8310   1.8963   2.0797
     2.1224   2.1432   2.1717   2.2140   2.2813   2.3171

          k = 0.5000-0.0962 0.0000 ( 59291 PWs)   bands (ev):

   -68.6767 -68.6685 -40.3497 -40.2640 -40.1054 -40.0969 -40.0422 -40.0334
   -21.1149 -20.9208 -20.7189 -20.1601 -19.8053 -19.4688 -19.3238 -19.1705
   -19.0158 -18.7802 -18.6319 -18.5506 -18.1377 -18.1053 -17.9194 -17.7237
   -12.3493 -12.1168 -12.0450 -11.9131 -11.6962 -11.6457 -11.5569 -10.9447
   -10.8897 -10.6237 -10.5276  -9.8601  -9.6960  -9.3387  -9.1126  -8.6413
    -8.6260  -8.5528  -8.3956  -8.3824  -8.1616  -8.0955  -8.0786  -8.0402
    -7.6869  -7.6262  -7.4955  -7.4775  -7.3384  -7.1736  -7.0706  -6.8487
    -6.6239  -6.3830  -6.1801  -6.1593  -5.9501  -5.9301  -5.7848  -5.7356
    -5.4544  -5.3878  -5.1745  -5.0470  -4.4097  -4.3683  -4.0764  -3.7576
    -1.3984   0.1340   0.8742   1.0198   1.1170   1.1306   1.2147   1.2814
     1.3639   1.6172   1.7108   1.7508   1.8382   1.9160   1.9511   1.9898
     2.0570   2.1429   2.2048   2.2389   2.2855   2.3477

          k =-0.3333-0.3849 0.0000 ( 59291 PWs)   bands (ev):

   -68.6767 -68.6685 -40.3497 -40.2640 -40.1054 -40.0970 -40.0422 -40.0334
   -21.1159 -20.9180 -20.7208 -20.1599 -19.8071 -19.4673 -19.3189 -19.1736
   -19.0189 -18.7784 -18.6332 -18.5499 -18.1398 -18.1028 -17.9195 -17.7238
   -12.3505 -12.1141 -12.0478 -11.9113 -11.6850 -11.6586 -11.5560 -10.9443
   -10.8899 -10.6232 -10.5281  -9.8604  -9.6961  -9.3386  -9.1135  -8.6440
    -8.6245  -8.5546  -8.3927  -8.3738  -8.1632  -8.1012  -8.0658  -8.0543
    -7.6874  -7.6244  -7.5023  -7.4712  -7.3376  -7.1737  -7.0712  -6.8543
    -6.6220  -6.3780  -6.1672  -6.1614  -5.9585  -5.9289  -5.7850  -5.7439
    -5.4543  -5.3834  -5.1754  -5.0471  -4.4126  -4.3653  -4.0760  -3.7577
    -1.4066   0.2005   0.8663   1.0164   1.0962   1.1673   1.2064   1.2768
     1.3513   1.5308   1.6864   1.7730   1.8310   1.8865   1.9539   2.0180
     2.0626   2.0884   2.1687   2.2207   2.2973   2.3232

          k = 0.5000 0.0962 0.0000 ( 59291 PWs)   bands (ev):

   -68.6767 -68.6685 -40.3497 -40.2640 -40.1054 -40.0969 -40.0422 -40.0334
   -21.1149 -20.9208 -20.7189 -20.1601 -19.8053 -19.4689 -19.3238 -19.1705
   -19.0158 -18.7802 -18.6319 -18.5506 -18.1377 -18.1053 -17.9194 -17.7237
   -12.3493 -12.1169 -12.0450 -11.9131 -11.6962 -11.6457 -11.5569 -10.9447
   -10.8897 -10.6237 -10.5276  -9.8601  -9.6961  -9.3387  -9.1126  -8.6413
    -8.6260  -8.5529  -8.3956  -8.3824  -8.1616  -8.0955  -8.0785  -8.0401
    -7.6870  -7.6262  -7.4955  -7.4775  -7.3383  -7.1737  -7.0706  -6.8487
    -6.6238  -6.3830  -6.1801  -6.1592  -5.9501  -5.9300  -5.7849  -5.7356
    -5.4545  -5.3878  -5.1745  -5.0470  -4.4097  -4.3683  -4.0764  -3.7576
    -1.3984   0.1340   0.8742   1.0198   1.1170   1.1306   1.2147   1.2814
     1.3638   1.6172   1.7107   1.7508   1.8381   1.9160   1.9512   1.9898
     2.0569   2.1429   2.2048   2.2390   2.2854   2.3476

          k =-0.3333 0.3849 0.0000 ( 59291 PWs)   bands (ev):

   -68.6767 -68.6685 -40.3497 -40.2640 -40.1054 -40.0970 -40.0422 -40.0334
   -21.1159 -20.9180 -20.7208 -20.1599 -19.8071 -19.4673 -19.3189 -19.1736
   -19.0189 -18.7784 -18.6331 -18.5499 -18.1397 -18.1028 -17.9195 -17.7239
   -12.3505 -12.1141 -12.0478 -11.9113 -11.6850 -11.6586 -11.5559 -10.9444
   -10.8899 -10.6232 -10.5281  -9.8605  -9.6961  -9.3386  -9.1135  -8.6440
    -8.6245  -8.5545  -8.3927  -8.3738  -8.1632  -8.1012  -8.0658  -8.0543
    -7.6874  -7.6244  -7.5023  -7.4712  -7.3376  -7.1737  -7.0713  -6.8543
    -6.6220  -6.3780  -6.1672  -6.1615  -5.9585  -5.9290  -5.7850  -5.7439
    -5.4542  -5.3834  -5.1754  -5.0471  -4.4126  -4.3653  -4.0760  -3.7577
    -1.4066   0.2005   0.8663   1.0164   1.0962   1.1673   1.2064   1.2768
     1.3513   1.5307   1.6865   1.7730   1.8310   1.8865   1.9539   2.0179
     2.0627   2.0884   2.1687   2.2206   2.2972   2.3232

          k =-0.1667-0.0962 0.0000 ( 59226 PWs)   bands (ev):

   -68.6767 -68.6685 -40.3497 -40.2640 -40.1054 -40.0969 -40.0422 -40.0334
   -21.3144 -20.5369 -20.3465 -20.3399 -19.9884 -19.9823 -19.8064 -18.7286
   -18.7243 -18.3784 -18.3638 -18.3584 -18.2729 -18.2572 -18.0773 -18.0720
   -12.5124 -12.5024 -12.4103 -11.5839 -11.5790 -11.4329 -11.4184 -10.9281
   -10.9260  -9.9307  -9.9294  -9.6777  -9.3800  -9.3719  -9.2316  -9.2301
    -9.0442  -9.0424  -8.9094  -8.3245  -8.3237  -7.9049  -7.8999  -7.8645
    -7.8457  -7.7727  -7.5963  -7.5761  -7.1139  -7.0864  -6.9616  -6.8899
    -6.8879  -6.8442  -6.5325  -6.5309  -6.2596  -5.3299  -5.3116  -5.1449
    -5.0672  -4.7991  -4.7799  -4.7469  -4.6102  -4.5910  -4.3407  -4.3260
    -1.4417   0.3964   0.9083   1.0298   1.0851   1.1541   1.2047   1.3451
     1.4388   1.5102   1.5888   1.6462   1.7815   1.8291   1.8997   1.9267
     2.0287   2.0765   2.1311   2.1523   2.2145   2.3354

          k =-0.0000-0.1925 0.0000 ( 59226 PWs)   bands (ev):

   -68.6767 -68.6685 -40.3497 -40.2640 -40.1054 -40.0969 -40.0422 -40.0334
   -21.3145 -20.5317 -20.3587 -20.3365 -19.9902 -19.9731 -19.8102 -18.7340
   -18.7150 -18.4011 -18.3659 -18.3517 -18.2560 -18.2546 -18.0858 -18.0686
   -12.5135 -12.5021 -12.4096 -11.5886 -11.5751 -11.4315 -11.4175 -10.9305
   -10.9252  -9.9339  -9.9264  -9.6779  -9.3802  -9.3699  -9.2330  -9.2296
    -9.0437  -9.0434  -8.9099  -8.3268  -8.3207  -7.9054  -7.8994  -7.8527
    -7.8411  -7.7743  -7.6198  -7.5787  -7.1039  -7.0754  -6.9601  -6.8938
    -6.8856  -6.8540  -6.5359  -6.5269  -6.2602  -5.3325  -5.3011  -5.1452
    -5.0669  -4.8387  -4.7758  -4.7393  -4.5913  -4.5823  -4.3512  -4.3232
    -1.4489   0.5241   0.8841   1.0124   1.0822   1.1511   1.2048   1.3277
     1.3805   1.4663   1.5234   1.6004   1.7482   1.8270   1.8856   1.9873
     2.0434   2.0670   2.1286   2.1625   2.2149   2.2904

          k = 0.5000-0.8660 0.0000 ( 59292 PWs)   bands (ev):

   -68.6767 -68.6685 -40.3498 -40.2640 -40.1054 -40.0970 -40.0422 -40.0334
   -21.0532 -21.0454 -20.4705 -20.4649 -19.4299 -19.4240 -19.4111 -19.4079
   -18.9953 -18.9869 -18.3280 -18.3262 -18.3197 -18.3035 -17.7930 -17.7893
   -12.0741 -12.0716 -12.0675 -12.0572 -11.8807 -11.8759 -11.3322 -11.3285
   -10.2365 -10.2352 -10.1375 -10.1332 -10.1315 -10.1282  -8.5638  -8.5513
    -8.5500  -8.5477  -8.5425  -8.5389  -7.8664  -7.8646  -7.8631  -7.8602
    -7.8230  -7.8215  -7.7672  -7.7476  -7.4946  -7.4863  -6.6122  -6.6109
    -6.3358  -6.3125  -6.3057  -6.2863  -6.1934  -6.1870  -5.6971  -5.6921
    -5.5498  -5.5416  -4.7129  -4.7039  -4.6896  -4.6875  -3.8742  -3.8626
    -1.3983   0.1322   0.8792   1.0223   1.1257   1.1739   1.2755   1.3985
     1.4643   1.5414   1.5849   1.7093   1.7424   1.8920   1.9246   1.9375
     1.9840   2.0634   2.1827   2.2349   2.2929   2.3512

          k =-1.0000 0.0000 0.0000 ( 59292 PWs)   bands (ev):

   -68.6767 -68.6685 -40.3498 -40.2640 -40.1054 -40.0969 -40.0422 -40.0334
   -21.0758 -21.0199 -20.4805 -20.4596 -19.4417 -19.4102 -19.4093 -19.4055
   -19.0140 -18.9708 -18.3732 -18.3290 -18.2940 -18.2813 -17.8009 -17.7833
   -12.1117 -12.0759 -12.0462 -12.0332 -11.8868 -11.8702 -11.3523 -11.3100
   -10.2512 -10.2361 -10.1355 -10.1338 -10.1254 -10.1222  -8.6066  -8.5793
    -8.5581  -8.5286  -8.5192  -8.4897  -7.8818  -7.8753  -7.8618  -7.8538
    -7.8147  -7.8140  -7.7818  -7.7456  -7.5164  -7.4668  -6.6167  -6.6038
    -6.3493  -6.3000  -6.2942  -6.2810  -6.2104  -6.1728  -5.7234  -5.6714
    -5.5681  -5.5235  -4.7938  -4.6997  -4.6650  -4.6385  -3.8831  -3.8554
    -1.4301   0.4900   0.8631   1.0248   1.0632   1.1827   1.2228   1.2690
     1.3418   1.3472   1.6153   1.6364   1.6823   1.7968   1.8082   1.8867
     2.1238   2.1458   2.1621   2.2027   2.3176   2.3246

     the Fermi energy is    -1.1645 ev

!    total energy              =   -1133.82861335 Ry

     total all-electron energy =     -6753.504316 Ry
     estimated scf accuracy    <       0.00000006 Ry
     smearing contrib. (-TS)   =      -0.00000000 Ry
     internal energy E=F+TS    =   -1133.82861335 Ry

     The total energy is F=E-TS. E is the sum of the following terms:
     one-electron contribution =   -3951.56293212 Ry
     hartree contribution      =    2003.95404587 Ry
     xc contribution           =    -186.01784171 Ry
     ewald contribution        =    1359.17556938 Ry
     DFT-D3 Dispersion         =      -0.13516927 Ry
     one-center paw contrib.   =    -359.24228550 Ry

     total magnetization       =    10.00 Bohr mag/cell
     absolute magnetization    =    10.01 Bohr mag/cell

     convergence has been achieved in  14 iterations

     Writing output data file ./mytmp/Crdimer0.143-0.4.save/
 
     init_run     :     18.88s CPU     20.22s WALL (       1 calls)
     electrons    :    529.88s CPU    574.67s WALL (       1 calls)

     Called by init_run:
     wfcinit      :     13.85s CPU     14.61s WALL (       1 calls)
     potinit      :      1.53s CPU      1.62s WALL (       1 calls)
     hinit0       :      1.56s CPU      1.64s WALL (       1 calls)

     Called by electrons:
     c_bands      :    415.06s CPU    440.89s WALL (      14 calls)
     sum_band     :     81.27s CPU     92.43s WALL (      14 calls)
     v_of_rho     :      7.50s CPU      8.35s WALL (      15 calls)
     newd         :     18.23s CPU     25.21s WALL (      15 calls)
     PAW_pot      :      7.39s CPU      7.46s WALL (      15 calls)
     mix_rho      :      0.93s CPU      1.08s WALL (      14 calls)

     Called by c_bands:
     init_us_2    :      5.01s CPU      5.04s WALL (     870 calls)
     cegterg      :    402.70s CPU    428.46s WALL (     420 calls)

     Called by *egterg:
     cdiaghg      :     25.63s CPU     40.68s WALL (    2818 calls)
     h_psi        :    243.80s CPU    253.22s WALL (    2848 calls)
     s_psi        :     27.19s CPU     27.25s WALL (    2848 calls)
     g_psi        :      0.66s CPU      0.68s WALL (    2398 calls)

     Called by h_psi:
     h_psi:calbec :     29.33s CPU     29.93s WALL (    2848 calls)
     vloc_psi     :    184.37s CPU    193.06s WALL (    2848 calls)
     add_vuspsi   :     27.83s CPU     27.94s WALL (    2848 calls)

     General routines
     calbec       :     39.04s CPU     39.84s WALL (    3268 calls)
     fft          :      9.55s CPU     14.03s WALL (     369 calls)
     ffts         :      0.12s CPU      0.14s WALL (      58 calls)
     fftw         :    190.45s CPU    199.20s WALL (  249352 calls)
     interpolate  :      0.41s CPU      0.46s WALL (      30 calls)
 
     Parallel routines
     fft_scatt_xy :     31.32s CPU     32.49s WALL (  249779 calls)
     fft_scatt_yz :     79.88s CPU     88.64s WALL (  249779 calls)
 
     PWSCF        :   9m10.85s CPU   9m59.72s WALL

 
   This run was terminated on:  15:31:38   2Apr2021            

=------------------------------------------------------------------------------=
   JOB DONE.
=------------------------------------------------------------------------------=
