
     Program PWSCF v.6.7MaX starts on  2Apr2021 at 13: 3:55 

     This program is part of the open-source Quantum ESPRESSO suite
     for quantum simulation of materials; please cite
         "P. Giannozzi et al., J. Phys.:Condens. Matter 21 395502 (2009);
         "P. Giannozzi et al., J. Phys.:Condens. Matter 29 465901 (2017);
          URL http://www.quantum-espresso.org", 
     in publications or presentations arising from this work. More details at
     http://www.quantum-espresso.org/quote

     Parallel version (MPI), running on    48 processors

     MPI processes distributed on     1 nodes
     R & G space division:  proc/nbgrp/npool/nimage =      48
     Reading input from Crdimer0.1415-0.2.scf.in

     Current dimensions of program PWSCF are:
     Max number of different atomic species (ntypx) = 10
     Max number of k-points (npk) =  40000
     Max angular momentum in pseudopotentials (lmaxx) =  3
     file N.pbe-n-kjpaw_psl.1.0.0.UPF: wavefunction(s)  2S renormalized
     file Cr.pbe-spn-kjpaw_psl.1.0.0.UPF: wavefunction(s)  3S 3P 3D renormalized
     file Cr.pbe-spn-kjpaw_psl.1.0.0.UPF: wavefunction(s)  3S 3P 3D renormalized

     --------------------------------------------
     Parameters for DFT-D3 Dispersion Correction:
     --------------------------------------------
       Reference C6 values for interpolation: 

         atom   Coordination number   C6
         B          0.000           214.36
         B          0.971           150.74
         B          1.944           106.23
         B          2.913            62.89
         B          4.586            56.06
         N          0.000            50.54
         N          0.994            44.25
         N          2.014            39.35
         N          2.990            31.16
         Cr1        0.000          1381.48
         Cr1        1.827           571.38
         Cr1       10.619           306.69
         Cr2        0.000          1381.48
         Cr2        1.827           571.38
         Cr2       10.619           306.69

       Values used:

         atom   Coordination number  R0_AB[au]  C6      C8
         B          3.338            3.039     62.89   2505.93
         B          3.335            3.039     62.89   2506.01
         B          3.343            3.039     62.89   2505.81
         B          3.336            3.039     62.89   2506.00
         B          3.380            3.039     62.86   2504.75
         B          3.335            3.039     62.89   2506.00
         N          3.134            2.478     31.22    688.69
         N          3.135            2.478     31.22    688.69
         N          3.152            2.478     31.21    688.54
         N          3.136            2.478     31.22    688.68
         N          3.145            2.478     31.21    688.60
         N          3.134            2.478     31.22    688.70
         N          3.142            2.478     31.21    688.62
         N          3.134            2.478     31.22    688.70
         N          3.135            2.478     31.22    688.69
         B          3.337            3.039     62.89   2505.97
         B          3.335            3.039     62.89   2506.01
         B          3.335            3.039     62.89   2506.00
         B          3.380            3.039     62.86   2504.75
         B          3.338            3.039     62.89   2505.93
         B          3.337            3.039     62.89   2505.97
         N          3.142            2.478     31.21    688.62
         B          3.335            3.039     62.89   2506.01
         B          3.338            3.039     62.89   2505.95
         B          3.341            3.039     62.89   2505.87
         N          3.134            2.478     31.22    688.70
         N          3.135            2.478     31.22    688.69
         N          3.134            2.478     31.22    688.69
         N          3.134            2.478     31.22    688.69
         N          3.152            2.478     31.21    688.54
         N          3.136            2.478     31.22    688.68
         B          3.341            3.039     62.89   2505.87
         Cr1        0.738            3.252   1308.12 120725.08
         Cr2        0.738            3.252   1308.12 120725.08

         Molecular C6 ( Ry / a.u.^6 ) =     78319.29


     Subspace diagonalization in iterative solution of the eigenvalue problem:
     one sub-group per band group will be used
     scalapack distributed-memory algorithm (size of sub-group:  6*  6 procs)

 
     Parallelization info
     --------------------
     sticks:   dense  smooth     PW     G-vecs:    dense   smooth      PW
     Min         235      98     26                36277     9874    1408
     Max         236      99     27                36282     9883    1425
     Sum       11311    4741   1285              1741401   474235   68095
 


     bravais-lattice index     =            4
     lattice parameter (alat)  =      18.9275  a.u.
     unit-cell volume          =   10553.3021 (a.u.)^3
     number of atoms/cell      =           34
     number of atomic types    =            4
     number of electrons       =       156.00
     number of Kohn-Sham states=           94
     kinetic-energy cutoff     =      48.0000  Ry
     charge density cutoff     =     457.0000  Ry
     scf convergence threshold =      1.0E-07
     mixing beta               =       0.5000
     number of iterations used =            8  plain     mixing
     Exchange-correlation= SLA  PW   PBX  PBC
                           (   1   4   3   4   0   0   0)

     celldm(1)=  18.927497  celldm(2)=   0.000000  celldm(3)=   1.797125
     celldm(4)=   0.000000  celldm(5)=   0.000000  celldm(6)=   0.000000

     crystal axes: (cart. coord. in units of alat)
               a(1) = (   1.000000   0.000000   0.000000 )  
               a(2) = (  -0.500000   0.866025   0.000000 )  
               a(3) = (   0.000000   0.000000   1.797125 )  

     reciprocal axes: (cart. coord. in units 2 pi/alat)
               b(1) = (  1.000000  0.577350  0.000000 )  
               b(2) = (  0.000000  1.154701  0.000000 )  
               b(3) = (  0.000000  0.000000  0.556444 )  


     PseudoPot. # 1 for B  read from file:
     /home/sf05/q-e-qe-6.7MaX-Release/pseudo/B.pbe-n-kjpaw_psl.1.0.0.UPF
     MD5 check sum: d9c678ba5d3b2fd7b74e61139c9288d8
     Pseudo is Projector augmented-wave + core cor, Zval =  3.0
     Generated using "atomic" code by A. Dal Corso  v.5.1.2
     Shape of augmentation charge: PSQ
     Using radial grid of 1059 points,  4 beta functions with: 
                l(1) =   0
                l(2) =   0
                l(3) =   1
                l(4) =   1
     Q(r) pseudized with 0 coefficients 


     PseudoPot. # 2 for N  read from file:
     /home/sf05/q-e-qe-6.7MaX-Release/pseudo/N.pbe-n-kjpaw_psl.1.0.0.UPF
     MD5 check sum: e0e4e94a9c4025c5b51bd7d8793849bd
     Pseudo is Projector augmented-wave + core cor, Zval =  5.0
     Generated using "atomic" code by A. Dal Corso  v.5.1.2
     Shape of augmentation charge: PSQ
     Using radial grid of 1085 points,  4 beta functions with: 
                l(1) =   0
                l(2) =   0
                l(3) =   1
                l(4) =   1
     Q(r) pseudized with 0 coefficients 


     PseudoPot. # 3 for Cr read from file:
     /home/sf05/q-e-qe-6.7MaX-Release/pseudo/Cr.pbe-spn-kjpaw_psl.1.0.0.UPF
     MD5 check sum: 198f1a2427a48552563eee314eba32ba
     Pseudo is Projector augmented-wave + core cor, Zval = 14.0
     Generated using &quot;atomic&quot; code by A. Dal Corso  v.6.3
     Shape of augmentation charge: PSQ
     Using radial grid of 1183 points,  6 beta functions with: 
                l(1) =   0
                l(2) =   0
                l(3) =   1
                l(4) =   1
                l(5) =   2
                l(6) =   2
     Q(r) pseudized with 0 coefficients 


     PseudoPot. # 4 for Cr read from file:
     /home/sf05/q-e-qe-6.7MaX-Release/pseudo/Cr.pbe-spn-kjpaw_psl.1.0.0.UPF
     MD5 check sum: 198f1a2427a48552563eee314eba32ba
     Pseudo is Projector augmented-wave + core cor, Zval = 14.0
     Generated using &quot;atomic&quot; code by A. Dal Corso  v.6.3
     Shape of augmentation charge: PSQ
     Using radial grid of 1183 points,  6 beta functions with: 
                l(1) =   0
                l(2) =   0
                l(3) =   1
                l(4) =   1
                l(5) =   2
                l(6) =   2
     Q(r) pseudized with 0 coefficients 


     atomic species   valence    mass     pseudopotential
        B              3.00    10.81100     B ( 1.00)
        N              5.00    14.00674     N ( 1.00)
        Cr1           14.00    51.99610     Cr( 1.00)
        Cr2           14.00    51.99610     Cr( 1.00)

     Starting magnetic structure 
     atomic species   magnetization
        B            0.000
        N            0.000
        Cr1          1.000
        Cr2          1.000

     No symmetry found



   Cartesian axes

     site n.     atom                  positions (alat units)
         1           B   tau(   1) = (  -0.1250000   0.2165064   0.8985623  )
         2           B   tau(   2) = (   0.3750000   0.6495191   0.8985623  )
         3           B   tau(   3) = (   0.2500000   0.0000000   0.8985623  )
         4           B   tau(   4) = (   0.7500000   0.0000000   0.8985623  )
         5           B   tau(   5) = (   0.1250000   0.2165064   0.8985623  )
         6           B   tau(   6) = (  -0.3750000   0.6495191   0.8985623  )
         7           N   tau(   7) = (   0.7500005   0.2886748   0.8985623  )
         8           N   tau(   8) = (   0.3750005   0.5051812   0.8985623  )
         9           N   tau(   9) = (   0.3750005   0.0721685   0.8985623  )
        10           N   tau(  10) = (   0.6250005   0.0721685   0.8985623  )
        11           N   tau(  11) = (   0.2500005   0.2886748   0.8985623  )
        12           N   tau(  12) = (   0.6250005   0.5051812   0.8985623  )
        13           N   tau(  13) = (   0.0000005   0.2886748   0.8985623  )
        14           N   tau(  14) = (   0.2500005   0.7216875   0.8985623  )
        15           N   tau(  15) = (  -0.2499995   0.7216875   0.8985623  )
        16           B   tau(  16) = (   0.0000000   0.4330127   0.8985623  )
        17           B   tau(  17) = (   0.1250000   0.6495191   0.8985623  )
        18           B   tau(  18) = (  -0.1250000   0.6495191   0.8985623  )
        19           B   tau(  19) = (   0.3750000   0.2165064   0.8985623  )
        20           B   tau(  20) = (   0.6250000   0.2165064   0.8985623  )
        21           B   tau(  21) = (   0.5000000   0.4330127   0.8985623  )
        22           N   tau(  22) = (   0.5000005   0.2886748   0.8985623  )
        23           B   tau(  23) = (  -0.2500000   0.4330127   0.8985623  )
        24           B   tau(  24) = (   0.2500000   0.4330127   0.8985623  )
        25           B   tau(  25) = (   0.5000000   0.0000000   0.8985623  )
        26           N   tau(  26) = (  -0.1249995   0.5051812   0.8985623  )
        27           N   tau(  27) = (   0.1250005   0.5051812   0.8985623  )
        28           N   tau(  28) = (   0.0000005   0.7216875   0.8985623  )
        29           N   tau(  29) = (   0.5000005   0.7216875   0.8985623  )
        30           N   tau(  30) = (   0.1250005   0.0721685   0.8985623  )
        31           N   tau(  31) = (   0.8750005   0.0721685   0.8985623  )
        32           B   tau(  32) = (   0.0000000   0.0000000   0.8985623  )
        33           Cr1 tau(  33) = (   0.3915000   0.1732051   1.2040735  )
        34           Cr2 tau(  34) = (   0.1085000   0.1732051   1.2040735  )

     number of k points=    15  Gaussian smearing, width (Ry)=  0.0000
                       cart. coord. in units 2pi/alat
        k(    1) = (   0.1666667   0.2886751   0.0000000), wk =   0.0740741
        k(    2) = (   0.1666667  -0.4811252   0.0000000), wk =   0.0740741
        k(    3) = (   0.1666667  -0.0962250   0.0000000), wk =   0.0740741
        k(    4) = (  -0.5000000  -0.8660254   0.0000000), wk =   0.0370370
        k(    5) = (  -0.1666667   0.2886751   0.0000000), wk =   0.0740741
        k(    6) = (   0.3333333   0.0000000   0.0000000), wk =   0.0740741
        k(    7) = (  -0.1666667  -0.4811252   0.0000000), wk =   0.0740741
        k(    8) = (   0.5000000  -0.0962250   0.0000000), wk =   0.0740741
        k(    9) = (  -0.3333333  -0.3849002   0.0000000), wk =   0.0740741
        k(   10) = (   0.5000000   0.0962250   0.0000000), wk =   0.0740741
        k(   11) = (  -0.3333333   0.3849002   0.0000000), wk =   0.0740741
        k(   12) = (  -0.1666667  -0.0962250   0.0000000), wk =   0.0740741
        k(   13) = (  -0.0000000  -0.1924501   0.0000000), wk =   0.0740741
        k(   14) = (   0.5000000  -0.8660254   0.0000000), wk =   0.0370370
        k(   15) = (  -1.0000000   0.0000000   0.0000000), wk =   0.0370370

     Dense  grid:  1741401 G-vectors     FFT dimensions: ( 135, 135, 240)

     Smooth grid:   474235 G-vectors     FFT dimensions: (  90,  90, 160)

     Estimated max dynamical RAM per process >     218.62 MB

     Estimated total dynamical RAM >      10.25 GB
     Generating pointlists ...
     new r_m :   0.0595 (alat units)  1.1269 (a.u.) for type    1
     new r_m :   0.0595 (alat units)  1.1269 (a.u.) for type    2
     new r_m :   0.1167 (alat units)  2.2095 (a.u.) for type    3
     new r_m :   0.1167 (alat units)  2.2095 (a.u.) for type    4

     Initial potential from superposition of free atoms

     starting charge  155.99382, renormalised to  156.00000

     negative rho (up, down):  6.713E-03 4.655E-04
     Starting wfcs are  148 randomized atomic wfcs
     Checking if some PAW data can be deallocated... 

     total cpu time spent up to now is       20.2 secs

     Self-consistent Calculation

     iteration #  1     ecut=    48.00 Ry     beta= 0.50
     Davidson diagonalization with overlap
     ethr =  1.00E-02,  avg # of iterations =  2.8

     negative rho (up, down):  4.897E-03 2.908E-03

     total cpu time spent up to now is       60.2 secs

     total energy              =   -1130.73183093 Ry
     estimated scf accuracy    <      11.37789743 Ry

     total magnetization       =    12.00 Bohr mag/cell
     absolute magnetization    =    12.12 Bohr mag/cell

     iteration #  2     ecut=    48.00 Ry     beta= 0.50
     Davidson diagonalization with overlap
     ethr =  7.29E-03,  avg # of iterations =  2.8

     negative rho (up, down):  8.382E-03 7.540E-03

     total cpu time spent up to now is       97.4 secs

     total energy              =   -1132.99414554 Ry
     estimated scf accuracy    <       3.59854015 Ry

     total magnetization       =    10.00 Bohr mag/cell
     absolute magnetization    =    10.10 Bohr mag/cell

     iteration #  3     ecut=    48.00 Ry     beta= 0.50
     Davidson diagonalization with overlap
     ethr =  2.31E-03,  avg # of iterations =  6.8

     negative rho (up, down):  3.714E-03 3.637E-03

     total cpu time spent up to now is      134.8 secs

     total energy              =   -1133.57825636 Ry
     estimated scf accuracy    <       0.77158695 Ry

     total magnetization       =    11.85 Bohr mag/cell
     absolute magnetization    =    11.91 Bohr mag/cell

     iteration #  4     ecut=    48.00 Ry     beta= 0.50
     Davidson diagonalization with overlap
     ethr =  4.95E-04,  avg # of iterations =  6.5

     negative rho (up, down):  7.014E-03 7.842E-03

     total cpu time spent up to now is      171.1 secs

     total energy              =   -1133.77478938 Ry
     estimated scf accuracy    <       0.50175910 Ry

     total magnetization       =    10.00 Bohr mag/cell
     absolute magnetization    =    10.01 Bohr mag/cell

     iteration #  5     ecut=    48.00 Ry     beta= 0.50
     Davidson diagonalization with overlap
     ethr =  3.22E-04,  avg # of iterations =  6.8

     negative rho (up, down):  4.567E-03 4.782E-03

     total cpu time spent up to now is      209.2 secs

     total energy              =   -1133.81480998 Ry
     estimated scf accuracy    <       0.03462762 Ry

     total magnetization       =    10.00 Bohr mag/cell
     absolute magnetization    =    10.02 Bohr mag/cell

     iteration #  6     ecut=    48.00 Ry     beta= 0.50
     Davidson diagonalization with overlap
     c_bands:  1 eigenvalues not converged
     ethr =  2.22E-05,  avg # of iterations = 11.2

     negative rho (up, down):  3.795E-03 3.943E-03

     total cpu time spent up to now is      256.6 secs

     total energy              =   -1133.81972951 Ry
     estimated scf accuracy    <       0.04370625 Ry

     total magnetization       =    10.00 Bohr mag/cell
     absolute magnetization    =    10.02 Bohr mag/cell

     iteration #  7     ecut=    48.00 Ry     beta= 0.50
     Davidson diagonalization with overlap
     ethr =  2.22E-05,  avg # of iterations =  6.3

     negative rho (up, down):  3.319E-03 3.791E-03

     total cpu time spent up to now is      293.5 secs

     total energy              =   -1133.82661506 Ry
     estimated scf accuracy    <       0.00240809 Ry

     total magnetization       =    10.00 Bohr mag/cell
     absolute magnetization    =    10.02 Bohr mag/cell

     iteration #  8     ecut=    48.00 Ry     beta= 0.50
     Davidson diagonalization with overlap
     ethr =  1.54E-06,  avg # of iterations =  8.1

     negative rho (up, down):  3.221E-03 3.756E-03

     total cpu time spent up to now is      333.0 secs

     total energy              =   -1133.82746872 Ry
     estimated scf accuracy    <       0.00048499 Ry

     total magnetization       =    10.00 Bohr mag/cell
     absolute magnetization    =    10.01 Bohr mag/cell

     iteration #  9     ecut=    48.00 Ry     beta= 0.50
     Davidson diagonalization with overlap
     ethr =  3.11E-07,  avg # of iterations =  4.1

     negative rho (up, down):  3.148E-03 3.746E-03

     total cpu time spent up to now is      365.2 secs

     total energy              =   -1133.82765535 Ry
     estimated scf accuracy    <       0.00012115 Ry

     total magnetization       =    10.00 Bohr mag/cell
     absolute magnetization    =    10.01 Bohr mag/cell

     iteration # 10     ecut=    48.00 Ry     beta= 0.50
     Davidson diagonalization with overlap
     ethr =  7.77E-08,  avg # of iterations =  3.9

     negative rho (up, down):  3.141E-03 3.760E-03

     total cpu time spent up to now is      400.9 secs

     total energy              =   -1133.82773445 Ry
     estimated scf accuracy    <       0.00002529 Ry

     total magnetization       =    10.00 Bohr mag/cell
     absolute magnetization    =    10.01 Bohr mag/cell

     iteration # 11     ecut=    48.00 Ry     beta= 0.50
     Davidson diagonalization with overlap
     ethr =  1.62E-08,  avg # of iterations =  4.1

     negative rho (up, down):  3.133E-03 3.776E-03

     total cpu time spent up to now is      433.1 secs

     total energy              =   -1133.82776029 Ry
     estimated scf accuracy    <       0.00000735 Ry

     total magnetization       =    10.00 Bohr mag/cell
     absolute magnetization    =    10.01 Bohr mag/cell

     iteration # 12     ecut=    48.00 Ry     beta= 0.50
     Davidson diagonalization with overlap
     ethr =  4.71E-09,  avg # of iterations =  4.4

     negative rho (up, down):  3.128E-03 3.791E-03

     total cpu time spent up to now is      465.7 secs

     total energy              =   -1133.82776867 Ry
     estimated scf accuracy    <       0.00000151 Ry

     total magnetization       =    10.00 Bohr mag/cell
     absolute magnetization    =    10.01 Bohr mag/cell

     iteration # 13     ecut=    48.00 Ry     beta= 0.50
     Davidson diagonalization with overlap
     ethr =  9.67E-10,  avg # of iterations =  5.0

     negative rho (up, down):  3.124E-03 3.795E-03

     total cpu time spent up to now is      500.6 secs

     total energy              =   -1133.82777223 Ry
     estimated scf accuracy    <       0.00000024 Ry

     total magnetization       =    10.00 Bohr mag/cell
     absolute magnetization    =    10.01 Bohr mag/cell

     iteration # 14     ecut=    48.00 Ry     beta= 0.50
     Davidson diagonalization with overlap
     ethr =  1.57E-10,  avg # of iterations =  4.8

     negative rho (up, down):  3.122E-03 3.796E-03
 
     Magnetic moment per site:
     atom:    1    charge:    0.8809    magn:    0.0003    constr:    0.0000
     atom:    2    charge:    0.8803    magn:    0.0001    constr:    0.0000
     atom:    3    charge:    0.8795    magn:    0.0008    constr:    0.0000
     atom:    4    charge:    0.8806    magn:    0.0002    constr:    0.0000
     atom:    5    charge:    0.8806    magn:    0.0002    constr:    0.0000
     atom:    6    charge:    0.8802    magn:    0.0001    constr:    0.0000
     atom:    7    charge:    2.8611    magn:    0.0001    constr:    0.0000
     atom:    8    charge:    2.8608    magn:    0.0005    constr:    0.0000
     atom:    9    charge:    2.8607    magn:    0.0072    constr:    0.0000
     atom:   10    charge:    2.8609    magn:    0.0011    constr:    0.0000
     atom:   11    charge:    2.8603    magn:    0.0062    constr:    0.0000
     atom:   12    charge:    2.8610    magn:    0.0001    constr:    0.0000
     atom:   13    charge:    2.8597    magn:    0.0043    constr:    0.0000
     atom:   14    charge:    2.8599    magn:    0.0003    constr:    0.0000
     atom:   15    charge:    2.8598    magn:    0.0004    constr:    0.0000
     atom:   16    charge:    0.8800    magn:    0.0005    constr:    0.0000
     atom:   17    charge:    0.8800    magn:    0.0001    constr:    0.0000
     atom:   18    charge:    0.8799    magn:    0.0001    constr:    0.0000
     atom:   19    charge:    0.8800    magn:    0.0002    constr:    0.0000
     atom:   20    charge:    0.8803    magn:    0.0003    constr:    0.0000
     atom:   21    charge:    0.8798    magn:    0.0005    constr:    0.0000
     atom:   22    charge:    2.8610    magn:    0.0043    constr:    0.0000
     atom:   23    charge:    0.8801    magn:    0.0002    constr:    0.0000
     atom:   24    charge:    0.8796    magn:    0.0004    constr:    0.0000
     atom:   25    charge:    0.8802    magn:    0.0003    constr:    0.0000
     atom:   26    charge:    2.8598    magn:    0.0001    constr:    0.0000
     atom:   27    charge:    2.8597    magn:    0.0005    constr:    0.0000
     atom:   28    charge:    2.8597    magn:    0.0005    constr:    0.0000
     atom:   29    charge:    2.8596    magn:    0.0005    constr:    0.0000
     atom:   30    charge:    2.8594    magn:    0.0072    constr:    0.0000
     atom:   31    charge:    2.8596    magn:    0.0011    constr:    0.0000
     atom:   32    charge:    0.8804    magn:    0.0003    constr:    0.0000
     atom:   33    charge:   12.5178    magn:    4.2364    constr:    0.0000
     atom:   34    charge:   12.5179    magn:    4.2365    constr:    0.0000

     total cpu time spent up to now is      535.0 secs

     End of self-consistent calculation

 ------ SPIN UP ------------


          k = 0.1667 0.2887 0.0000 ( 59267 PWs)   bands (ev):

   -72.8920 -72.8838 -44.4412 -44.3606 -44.2912 -44.2833 -44.2695 -44.2615
   -21.2416 -20.6561 -20.6500 -20.1013 -20.0893 -19.5832 -19.5771 -19.0944
   -18.6922 -18.6858 -18.4544 -18.4436 -18.1895 -18.0807 -18.0732 -17.8446
   -12.4789 -12.2027 -12.1955 -11.8167 -11.8122 -11.6534 -11.1872 -11.1836
   -10.3869 -10.3629 -10.1131 -10.1098  -9.5842  -9.5829  -8.8346  -8.8197
    -8.8163  -8.7623  -8.7560  -8.5914  -8.1921  -8.0475  -8.0114  -7.8245
    -7.8212  -7.4333  -7.4322  -7.2786  -7.2538  -7.2035  -7.2007  -6.9577
    -6.9482  -6.5616  -6.5340  -6.1489  -6.1474  -5.8674  -5.4136  -5.2920
    -5.2694  -5.1950  -4.9114  -4.8924  -4.5021  -4.3522  -4.3362  -3.9751
    -2.8821  -2.0429  -2.0184  -1.8414  -1.6425  -1.6176  -1.5019  -1.4834
    -1.3864  -1.3704  -1.3307  -0.7306   0.6904   0.9180   1.0121   1.1793
     1.2895   1.4704   1.5214   1.5755   1.6085   1.7996

          k = 0.1667-0.4811 0.0000 ( 59291 PWs)   bands (ev):

   -72.8920 -72.8838 -44.4412 -44.3606 -44.2912 -44.2833 -44.2695 -44.2615
   -21.1110 -20.9074 -20.7177 -20.1556 -19.7992 -19.4616 -19.3117 -19.1696
   -19.0093 -18.7740 -18.6350 -18.5398 -18.1431 -18.0853 -17.9171 -17.7188
   -12.3429 -12.1081 -12.0397 -11.9016 -11.6755 -11.6537 -11.5478 -10.9373
   -10.8850 -10.6186 -10.5185  -9.8551  -9.6883  -9.3313  -9.1059  -8.6630
    -8.6177  -8.5478  -8.3842  -8.3634  -8.1563  -8.1188  -8.0581  -8.0447
    -7.6828  -7.6182  -7.4889  -7.4691  -7.3521  -7.1660  -7.0629  -6.8560
    -6.6171  -6.3852  -6.1730  -6.1529  -5.9674  -5.9243  -5.7783  -5.7417
    -5.4463  -5.3938  -5.2049  -5.0375  -4.4396  -4.3437  -4.0844  -3.7624
    -2.8790  -2.0427  -2.0182  -1.8382  -1.6417  -1.6173  -1.5039  -1.4846
    -1.3873  -1.3699  -1.3318  -0.7344   0.5974   0.9148   1.0102   1.1086
     1.2326   1.2831   1.3856   1.8427   1.9188   2.1242

          k = 0.1667-0.0962 0.0000 ( 59226 PWs)   bands (ev):

   -72.8920 -72.8838 -44.4412 -44.3606 -44.2912 -44.2833 -44.2695 -44.2615
   -21.3081 -20.5301 -20.3412 -20.3334 -19.9834 -19.9752 -19.8010 -18.7242
   -18.7166 -18.3713 -18.3610 -18.3505 -18.2664 -18.2543 -18.0732 -18.0660
   -12.5035 -12.4961 -12.4033 -11.5764 -11.5709 -11.4236 -11.4134 -10.9212
   -10.9186  -9.9249  -9.9209  -9.6707  -9.3719  -9.3651  -9.2260  -9.2227
    -9.0375  -9.0350  -8.9190  -8.3194  -8.3160  -7.8967  -7.8937  -7.8761
    -7.8398  -7.7652  -7.6060  -7.5769  -7.1320  -7.0868  -6.9540  -6.8828
    -6.8804  -6.8474  -6.5263  -6.5229  -6.2524  -5.3455  -5.3124  -5.1381
    -5.0602  -4.8058  -4.7924  -4.7455  -4.6179  -4.5953  -4.3499  -4.3270
    -2.8854  -2.0432  -2.0186  -1.8447  -1.6445  -1.6178  -1.5004  -1.4820
    -1.3855  -1.3709  -1.3298  -0.7266   0.8176   0.9004   0.9551   1.1950
     1.2576   1.3426   1.5853   1.5954   1.7056   1.9485

          k =-0.5000-0.8660 0.0000 ( 59292 PWs)   bands (ev):

   -72.8920 -72.8838 -44.4412 -44.3606 -44.2912 -44.2833 -44.2694 -44.2615
   -21.0459 -21.0399 -20.4654 -20.4581 -19.4238 -19.4129 -19.4104 -19.4020
   -18.9882 -18.9830 -18.3200 -18.3186 -18.3141 -18.3030 -17.7896 -17.7827
   -12.0664 -12.0618 -12.0605 -12.0518 -11.8733 -11.8677 -11.3251 -11.3217
   -10.2309 -10.2261 -10.1302 -10.1275 -10.1259 -10.1203  -8.5851  -8.5457
    -8.5424  -8.5398  -8.5387  -8.5327  -7.8590  -7.8579  -7.8542  -7.8529
    -7.8211  -7.8140  -7.7773  -7.7481  -7.4868  -7.4794  -6.6066  -6.6017
    -6.3586  -6.3216  -6.3029  -6.2916  -6.1869  -6.1806  -5.7071  -5.6927
    -5.5414  -5.5358  -4.7205  -4.7081  -4.7062  -4.6829  -3.8830  -3.8635
    -2.8672  -2.0408  -2.0165  -1.8394  -1.6422  -1.6174  -1.5034  -1.4864
    -1.3942  -1.3744  -1.3341  -0.8551   0.7900   1.0499   1.0893   1.1775
     1.3426   1.5780   1.5870   1.6098   1.6793   1.7697

          k =-0.1667 0.2887 0.0000 ( 59267 PWs)   bands (ev):

   -72.8920 -72.8838 -44.4412 -44.3606 -44.2912 -44.2833 -44.2695 -44.2615
   -21.2416 -20.6562 -20.6499 -20.1013 -20.0893 -19.5832 -19.5770 -19.0944
   -18.6923 -18.6858 -18.4544 -18.4436 -18.1895 -18.0808 -18.0732 -17.8446
   -12.4789 -12.2028 -12.1955 -11.8167 -11.8122 -11.6534 -11.1873 -11.1835
   -10.3869 -10.3629 -10.1132 -10.1098  -9.5842  -9.5829  -8.8346  -8.8196
    -8.8162  -8.7624  -8.7559  -8.5914  -8.1922  -8.0474  -8.0114  -7.8245
    -7.8212  -7.4333  -7.4322  -7.2786  -7.2538  -7.2035  -7.2006  -6.9577
    -6.9483  -6.5616  -6.5341  -6.1489  -6.1474  -5.8674  -5.4136  -5.2920
    -5.2694  -5.1949  -4.9114  -4.8924  -4.5021  -4.3522  -4.3362  -3.9751
    -2.8821  -2.0429  -2.0184  -1.8414  -1.6425  -1.6176  -1.5019  -1.4834
    -1.3864  -1.3704  -1.3307  -0.7306   0.6904   0.9181   1.0121   1.1794
     1.2895   1.4704   1.5214   1.5755   1.6084   1.7996

          k = 0.3333 0.0000 0.0000 ( 59267 PWs)   bands (ev):

   -72.8920 -72.8838 -44.4412 -44.3606 -44.2913 -44.2833 -44.2695 -44.2615
   -21.2412 -20.6789 -20.6271 -20.0979 -20.0914 -19.6064 -19.5556 -19.0961
   -18.7072 -18.6666 -18.4531 -18.4467 -18.1852 -18.1016 -18.0584 -17.8439
   -12.4788 -12.2000 -12.1979 -11.8233 -11.8075 -11.6514 -11.2042 -11.1674
   -10.3856 -10.3631 -10.1242 -10.0988  -9.5903  -9.5759  -8.8418  -8.8179
    -8.8095  -8.7807  -8.7377  -8.5924  -8.1936  -8.0963  -7.9621  -7.8231
    -7.8209  -7.4393  -7.4258  -7.2835  -7.2433  -7.2122  -7.1919  -6.9556
    -6.9512  -6.6136  -6.4900  -6.1514  -6.1442  -5.8736  -5.4132  -5.2980
    -5.2522  -5.1955  -4.9168  -4.8906  -4.4920  -4.3766  -4.3247  -3.9737
    -2.8745  -2.0415  -2.0170  -1.8424  -1.6441  -1.6177  -1.5012  -1.4842
    -1.3907  -1.3734  -1.3323  -0.8146   0.8537   0.9792   1.1430   1.2521
     1.2707   1.4464   1.5362   1.5595   1.6049   1.7945

          k =-0.1667-0.4811 0.0000 ( 59291 PWs)   bands (ev):

   -72.8920 -72.8838 -44.4412 -44.3606 -44.2912 -44.2833 -44.2695 -44.2615
   -21.1110 -20.9074 -20.7177 -20.1556 -19.7992 -19.4616 -19.3117 -19.1696
   -19.0094 -18.7740 -18.6351 -18.5398 -18.1431 -18.0853 -17.9171 -17.7188
   -12.3429 -12.1081 -12.0397 -11.9016 -11.6754 -11.6537 -11.5478 -10.9373
   -10.8850 -10.6186 -10.5184  -9.8551  -9.6883  -9.3313  -9.1060  -8.6630
    -8.6177  -8.5478  -8.3842  -8.3634  -8.1563  -8.1188  -8.0581  -8.0448
    -7.6828  -7.6183  -7.4889  -7.4691  -7.3521  -7.1659  -7.0628  -6.8560
    -6.6171  -6.3852  -6.1730  -6.1529  -5.9674  -5.9243  -5.7783  -5.7417
    -5.4464  -5.3938  -5.2049  -5.0375  -4.4396  -4.3437  -4.0844  -3.7624
    -2.8790  -2.0427  -2.0182  -1.8382  -1.6417  -1.6173  -1.5039  -1.4846
    -1.3873  -1.3699  -1.3318  -0.7344   0.5974   0.9148   1.0102   1.1086
     1.2326   1.2831   1.3856   1.8427   1.9190   2.1243

          k = 0.5000-0.0962 0.0000 ( 59291 PWs)   bands (ev):

   -72.8920 -72.8838 -44.4412 -44.3606 -44.2912 -44.2833 -44.2695 -44.2615
   -21.1085 -20.9141 -20.7133 -20.1539 -19.7995 -19.4631 -19.3171 -19.1651
   -19.0102 -18.7745 -18.6262 -18.5453 -18.1318 -18.1004 -17.9144 -17.7186
   -12.3422 -12.1083 -12.0379 -11.9051 -11.6864 -11.6404 -11.5500 -10.9374
   -10.8831 -10.6172 -10.5206  -9.8529  -9.6890  -9.3323  -9.1054  -8.6531
    -8.6180  -8.5461  -8.3945  -8.3866  -8.1545  -8.0995  -8.0698  -8.0342
    -7.6796  -7.6189  -7.4881  -7.4702  -7.3453  -7.1672  -7.0633  -6.8561
    -6.6173  -6.3947  -6.1896  -6.1522  -5.9531  -5.9234  -5.7777  -5.7428
    -5.4476  -5.3933  -5.1821  -5.0526  -4.4154  -4.3731  -4.0816  -3.7621
    -2.8673  -2.0408  -2.0165  -1.8394  -1.6427  -1.6175  -1.5034  -1.4863
    -1.3942  -1.3744  -1.3342  -0.8549   0.7789   1.0263   1.0799   1.1881
     1.2853   1.3432   1.5054   1.7535   1.8396   1.9022

          k =-0.3333-0.3849 0.0000 ( 59291 PWs)   bands (ev):

   -72.8920 -72.8838 -44.4412 -44.3606 -44.2912 -44.2833 -44.2695 -44.2615
   -21.1094 -20.9117 -20.7149 -20.1538 -19.8011 -19.4615 -19.3127 -19.1681
   -19.0128 -18.7730 -18.6275 -18.5445 -18.1341 -18.0977 -17.9145 -17.7187
   -12.3425 -12.1069 -12.0398 -11.9044 -11.6762 -11.6516 -11.5490 -10.9373
   -10.8827 -10.6165 -10.5215  -9.8538  -9.6891  -9.3315  -9.1060  -8.6561
    -8.6171  -8.5482  -8.3854  -8.3824  -8.1561  -8.1068  -8.0581  -8.0467
    -7.6800  -7.6172  -7.4945  -7.4646  -7.3443  -7.1674  -7.0637  -6.8639
    -6.6155  -6.3857  -6.1741  -6.1541  -5.9656  -5.9225  -5.7781  -5.7524
    -5.4473  -5.3885  -5.1819  -5.0528  -4.4191  -4.3700  -4.0807  -3.7624
    -2.8712  -2.0415  -2.0172  -1.8390  -1.6420  -1.6174  -1.5038  -1.4857
    -1.3919  -1.3729  -1.3333  -0.8181   0.7121   1.0261   1.0887   1.1432
     1.2026   1.3779   1.4034   1.8045   1.9116   1.9247

          k = 0.5000 0.0962 0.0000 ( 59291 PWs)   bands (ev):

   -72.8920 -72.8838 -44.4412 -44.3606 -44.2912 -44.2833 -44.2695 -44.2615
   -21.1085 -20.9141 -20.7133 -20.1539 -19.7995 -19.4631 -19.3171 -19.1651
   -19.0102 -18.7745 -18.6262 -18.5454 -18.1319 -18.1004 -17.9144 -17.7186
   -12.3422 -12.1084 -12.0379 -11.9052 -11.6864 -11.6404 -11.5500 -10.9374
   -10.8831 -10.6172 -10.5206  -9.8529  -9.6890  -9.3323  -9.1054  -8.6531
    -8.6180  -8.5462  -8.3945  -8.3866  -8.1545  -8.0995  -8.0698  -8.0342
    -7.6796  -7.6188  -7.4881  -7.4703  -7.3453  -7.1673  -7.0632  -6.8561
    -6.6172  -6.3947  -6.1896  -6.1521  -5.9531  -5.9233  -5.7778  -5.7428
    -5.4476  -5.3933  -5.1821  -5.0526  -4.4154  -4.3731  -4.0816  -3.7621
    -2.8673  -2.0408  -2.0165  -1.8394  -1.6427  -1.6175  -1.5034  -1.4863
    -1.3942  -1.3744  -1.3342  -0.8549   0.7789   1.0263   1.0799   1.1881
     1.2853   1.3432   1.5054   1.7535   1.8396   1.9022

          k =-0.3333 0.3849 0.0000 ( 59291 PWs)   bands (ev):

   -72.8920 -72.8838 -44.4412 -44.3606 -44.2912 -44.2833 -44.2695 -44.2615
   -21.1094 -20.9118 -20.7149 -20.1538 -19.8011 -19.4615 -19.3127 -19.1681
   -19.0128 -18.7730 -18.6275 -18.5445 -18.1341 -18.0977 -17.9146 -17.7187
   -12.3425 -12.1069 -12.0398 -11.9044 -11.6762 -11.6516 -11.5490 -10.9373
   -10.8827 -10.6165 -10.5215  -9.8539  -9.6890  -9.3315  -9.1060  -8.6561
    -8.6171  -8.5482  -8.3854  -8.3824  -8.1561  -8.1068  -8.0581  -8.0466
    -7.6799  -7.6172  -7.4946  -7.4645  -7.3443  -7.1673  -7.0638  -6.8639
    -6.6156  -6.3857  -6.1741  -6.1542  -5.9656  -5.9226  -5.7780  -5.7524
    -5.4472  -5.3885  -5.1820  -5.0528  -4.4191  -4.3700  -4.0806  -3.7624
    -2.8712  -2.0415  -2.0172  -1.8390  -1.6420  -1.6174  -1.5038  -1.4857
    -1.3919  -1.3729  -1.3333  -0.8181   0.7121   1.0261   1.0887   1.1432
     1.2026   1.3779   1.4034   1.8044   1.9115   1.9247

          k =-0.1667-0.0962 0.0000 ( 59226 PWs)   bands (ev):

   -72.8920 -72.8838 -44.4412 -44.3606 -44.2912 -44.2833 -44.2695 -44.2615
   -21.3081 -20.5301 -20.3412 -20.3334 -19.9834 -19.9752 -19.8010 -18.7242
   -18.7166 -18.3713 -18.3610 -18.3505 -18.2664 -18.2543 -18.0732 -18.0660
   -12.5035 -12.4961 -12.4032 -11.5764 -11.5709 -11.4236 -11.4134 -10.9212
   -10.9186  -9.9249  -9.9209  -9.6707  -9.3719  -9.3651  -9.2260  -9.2228
    -9.0375  -9.0351  -8.9190  -8.3194  -8.3160  -7.8967  -7.8937  -7.8761
    -7.8397  -7.7653  -7.6060  -7.5769  -7.1321  -7.0868  -6.9541  -6.8828
    -6.8803  -6.8474  -6.5263  -6.5228  -6.2525  -5.3455  -5.3124  -5.1380
    -5.0603  -4.8058  -4.7924  -4.7456  -4.6179  -4.5953  -4.3499  -4.3270
    -2.8854  -2.0432  -2.0186  -1.8447  -1.6445  -1.6178  -1.5004  -1.4820
    -1.3855  -1.3709  -1.3298  -0.7266   0.8176   0.9004   0.9551   1.1949
     1.2576   1.3427   1.5854   1.5954   1.7056   1.9487

          k =-0.0000-0.1925 0.0000 ( 59226 PWs)   bands (ev):

   -72.8920 -72.8838 -44.4412 -44.3606 -44.2912 -44.2833 -44.2695 -44.2615
   -21.3082 -20.5256 -20.3498 -20.3327 -19.9831 -19.9687 -19.8043 -18.7264
   -18.7113 -18.3808 -18.3739 -18.3464 -18.2512 -18.2496 -18.0790 -18.0648
   -12.5006 -12.4992 -12.4030 -11.5804 -11.5686 -11.4185 -11.4153 -10.9229
   -10.9187  -9.9254  -9.9201  -9.6713  -9.3713  -9.3649  -9.2257  -9.2231
    -9.0368  -9.0363  -8.9195  -8.3194  -8.3148  -7.8954  -7.8941  -7.8591
    -7.8381  -7.7666  -7.6288  -7.5880  -7.1094  -7.0823  -6.9526  -6.8855
    -6.8792  -6.8592  -6.5279  -6.5208  -6.2529  -5.3396  -5.3098  -5.1385
    -5.0598  -4.8377  -4.7988  -4.7446  -4.5909  -4.5841  -4.3550  -4.3311
    -2.8891  -2.0439  -2.0193  -1.8442  -1.6438  -1.6177  -1.5008  -1.4818
    -1.3834  -1.3694  -1.3291  -0.6775   0.6937   0.8471   0.9584   1.1629
     1.2471   1.3749   1.5709   1.6007   1.7209   1.9685

          k = 0.5000-0.8660 0.0000 ( 59292 PWs)   bands (ev):

   -72.8920 -72.8838 -44.4412 -44.3606 -44.2912 -44.2833 -44.2694 -44.2615
   -21.0460 -21.0399 -20.4654 -20.4581 -19.4238 -19.4129 -19.4104 -19.4020
   -18.9882 -18.9829 -18.3200 -18.3186 -18.3142 -18.3029 -17.7896 -17.7827
   -12.0664 -12.0618 -12.0607 -12.0516 -11.8733 -11.8677 -11.3251 -11.3216
   -10.2309 -10.2261 -10.1302 -10.1275 -10.1259 -10.1203  -8.5851  -8.5457
    -8.5425  -8.5397  -8.5387  -8.5325  -7.8590  -7.8579  -7.8542  -7.8529
    -7.8212  -7.8140  -7.7773  -7.7481  -7.4869  -7.4794  -6.6065  -6.6016
    -6.3586  -6.3216  -6.3029  -6.2916  -6.1869  -6.1804  -5.7071  -5.6928
    -5.5416  -5.5358  -4.7205  -4.7080  -4.7062  -4.6830  -3.8830  -3.8635
    -2.8672  -2.0408  -2.0165  -1.8394  -1.6422  -1.6174  -1.5034  -1.4864
    -1.3942  -1.3744  -1.3341  -0.8551   0.7900   1.0499   1.0894   1.1775
     1.3425   1.5779   1.5869   1.6099   1.6792   1.7697

          k =-1.0000 0.0000 0.0000 ( 59292 PWs)   bands (ev):

   -72.8920 -72.8838 -44.4413 -44.3606 -44.2912 -44.2833 -44.2695 -44.2615
   -21.0677 -21.0156 -20.4721 -20.4556 -19.4211 -19.4158 -19.4117 -19.3951
   -19.0065 -18.9664 -18.3551 -18.3390 -18.2825 -18.2794 -17.7939 -17.7799
   -12.0900 -12.0810 -12.0360 -12.0298 -11.8781 -11.8637 -11.3445 -11.3044
   -10.2406 -10.2290 -10.1292 -10.1278 -10.1188 -10.1168  -8.6257  -8.5645
    -8.5569  -8.5177  -8.5174  -8.4880  -7.8685  -7.8671  -7.8536  -7.8504
    -7.8132  -7.8103  -7.7858  -7.7538  -7.5064  -7.4616  -6.6080  -6.5987
    -6.3467  -6.3200  -6.3101  -6.2779  -6.2020  -6.1681  -5.7268  -5.6805
    -5.5593  -5.5179  -4.7976  -4.7360  -4.6503  -4.6374  -3.8859  -3.8619
    -2.8829  -2.0431  -2.0185  -1.8378  -1.6416  -1.6173  -1.5036  -1.4841
    -1.3851  -1.3685  -1.3310  -0.6862   0.5534   0.8030   1.0035   1.1041
     1.2428   1.4649   1.5939   1.6215   1.6441   1.9445

 ------ SPIN DOWN ----------


          k = 0.1667 0.2887 0.0000 ( 59267 PWs)   bands (ev):

   -68.6946 -68.6852 -40.3710 -40.2755 -40.1125 -40.1030 -40.0714 -40.0618
   -21.2375 -20.6532 -20.6449 -20.0969 -20.0855 -19.5805 -19.5718 -19.0902
   -18.6886 -18.6803 -18.4500 -18.4396 -18.1845 -18.0773 -18.0690 -17.8402
   -12.4763 -12.1997 -12.1929 -11.8141 -11.8098 -11.6511 -11.1851 -11.1801
   -10.3838 -10.3600 -10.1105 -10.1063  -9.5817  -9.5798  -8.8208  -8.8134
    -8.8096  -8.7605  -8.7525  -8.5888  -8.1896  -8.0218  -8.0020  -7.8219
    -7.8187  -7.4298  -7.4289  -7.2585  -7.2396  -7.2015  -7.1976  -6.9549
    -6.9459  -6.5388  -6.5260  -6.1462  -6.1447  -5.8506  -5.4104  -5.2682
    -5.2566  -5.1922  -4.8959  -4.8794  -4.4842  -4.3371  -4.3259  -3.9606
    -1.4489   0.3809   0.9155   1.0284   1.1012   1.1363   1.2471   1.3486
     1.3906   1.4946   1.5341   1.5986   1.6350   1.7130   1.9010   1.9375
     2.0355   2.0886   2.1596   2.1888   2.2795   2.3059

          k = 0.1667-0.4811 0.0000 ( 59291 PWs)   bands (ev):

   -68.6946 -68.6852 -40.3710 -40.2755 -40.1125 -40.1030 -40.0714 -40.0618
   -21.1066 -20.9040 -20.7135 -20.1514 -19.7952 -19.4575 -19.3078 -19.1652
   -19.0053 -18.7699 -18.6294 -18.5364 -18.1370 -18.0830 -17.9126 -17.7144
   -12.3402 -12.1054 -12.0372 -11.8992 -11.6735 -11.6505 -11.5452 -10.9343
   -10.8819 -10.6154 -10.5158  -9.8518  -9.6856  -9.3281  -9.1032  -8.6389
    -8.6150  -8.5446  -8.3818  -8.3510  -8.1537  -8.1009  -8.0559  -8.0420
    -7.6799  -7.6156  -7.4864  -7.4666  -7.3336  -7.1627  -7.0603  -6.8396
    -6.6137  -6.3690  -6.1562  -6.1502  -5.9518  -5.9209  -5.7755  -5.7255
    -5.4436  -5.3783  -5.1812  -5.0279  -4.4178  -4.3372  -4.0701  -3.7485
    -1.4394   0.3690   0.9236   0.9832   1.0390   1.0894   1.2033   1.2257
     1.3512   1.4179   1.5432   1.7388   1.7924   1.8315   1.8730   2.0803
     2.1147   2.1346   2.1569   2.2136   2.2872   2.3060

          k = 0.1667-0.0962 0.0000 ( 59226 PWs)   bands (ev):

   -68.6946 -68.6852 -40.3710 -40.2755 -40.1125 -40.1030 -40.0714 -40.0618
   -21.3041 -20.5256 -20.3370 -20.3301 -19.9783 -19.9716 -19.7975 -18.7190
   -18.7127 -18.3664 -18.3573 -18.3464 -18.2616 -18.2498 -18.0689 -18.0627
   -12.5006 -12.4936 -12.4006 -11.5736 -11.5688 -11.4206 -11.4109 -10.9182
   -10.9161  -9.9218  -9.9183  -9.6676  -9.3690  -9.3624  -9.2224  -9.2199
    -9.0347  -9.0325  -8.8999  -8.3158  -8.3129  -7.8939  -7.8908  -7.8538
    -7.8355  -7.7628  -7.5885  -7.5666  -7.1052  -7.0760  -6.9513  -6.8801
    -6.8780  -6.8364  -6.5234  -6.5204  -6.2498  -5.3211  -5.3001  -5.1351
    -5.0574  -4.7881  -4.7743  -4.7330  -4.6015  -4.5831  -4.3329  -4.3172
    -1.4584   0.3951   0.9195   1.0335   1.0714   1.1193   1.1491   1.3017
     1.4807   1.5427   1.5972   1.6385   1.7666   1.8753   1.8862   1.9208
     1.9631   2.0283   2.1141   2.1701   2.2414   2.3013

          k =-0.5000-0.8660 0.0000 ( 59292 PWs)   bands (ev):

   -68.6946 -68.6852 -40.3710 -40.2755 -40.1125 -40.1030 -40.0714 -40.0618
   -21.0431 -21.0345 -20.4611 -20.4547 -19.4179 -19.4096 -19.4062 -19.3982
   -18.9854 -18.9776 -18.3155 -18.3139 -18.3129 -18.2959 -17.7848 -17.7789
   -12.0628 -12.0595 -12.0592 -12.0479 -11.8707 -11.8658 -11.3230 -11.3182
   -10.2277 -10.2237 -10.1267 -10.1241 -10.1229 -10.1179  -8.5549  -8.5413
    -8.5405  -8.5366  -8.5319  -8.5287  -7.8560  -7.8551  -7.8516  -7.8508
    -7.8163  -7.8105  -7.7593  -7.7374  -7.4852  -7.4761  -6.6034  -6.5993
    -6.3269  -6.3015  -6.2928  -6.2813  -6.1844  -6.1770  -5.6888  -5.6824
    -5.5398  -5.5319  -4.7009  -4.6934  -4.6824  -4.6800  -3.8661  -3.8525
    -1.4159   0.1312   0.9421   0.9975   1.0985   1.1349   1.2110   1.3692
     1.5153   1.5474   1.5787   1.6999   1.7378   1.8664   1.9093   1.9514
     1.9844   2.0378   2.1750   2.2185   2.3051   2.3168

          k =-0.1667 0.2887 0.0000 ( 59267 PWs)   bands (ev):

   -68.6946 -68.6852 -40.3710 -40.2755 -40.1125 -40.1030 -40.0714 -40.0618
   -21.2375 -20.6532 -20.6449 -20.0969 -20.0855 -19.5806 -19.5717 -19.0902
   -18.6887 -18.6802 -18.4500 -18.4396 -18.1845 -18.0773 -18.0689 -17.8402
   -12.4762 -12.1997 -12.1929 -11.8141 -11.8098 -11.6511 -11.1851 -11.1800
   -10.3838 -10.3600 -10.1105 -10.1063  -9.5817  -9.5798  -8.8207  -8.8134
    -8.8096  -8.7606  -8.7525  -8.5888  -8.1897  -8.0218  -8.0020  -7.8219
    -7.8187  -7.4298  -7.4289  -7.2585  -7.2396  -7.2015  -7.1976  -6.9550
    -6.9459  -6.5388  -6.5260  -6.1462  -6.1446  -5.8506  -5.4104  -5.2682
    -5.2567  -5.1921  -4.8959  -4.8794  -4.4842  -4.3372  -4.3259  -3.9606
    -1.4489   0.3809   0.9155   1.0285   1.1012   1.1363   1.2471   1.3486
     1.3906   1.4946   1.5341   1.5986   1.6350   1.7130   1.9010   1.9376
     2.0355   2.0886   2.1596   2.1889   2.2795   2.3059

          k = 0.3333 0.0000 0.0000 ( 59267 PWs)   bands (ev):

   -68.6946 -68.6852 -40.3710 -40.2755 -40.1125 -40.1030 -40.0714 -40.0618
   -21.2372 -20.6728 -20.6252 -20.0940 -20.0874 -19.6001 -19.5536 -19.0916
   -18.7008 -18.6648 -18.4484 -18.4425 -18.1811 -18.0944 -18.0564 -17.8397
   -12.4761 -12.1974 -12.1949 -11.8206 -11.8050 -11.6493 -11.2002 -11.1657
   -10.3828 -10.3601 -10.1201 -10.0969  -9.5870  -9.5738  -8.8264  -8.8146
    -8.8018  -8.7769  -8.7364  -8.5897  -8.1908  -8.0655  -7.9581  -7.8206
    -7.8185  -7.4350  -7.4234  -7.2612  -7.2331  -7.2089  -7.1902  -6.9529
    -6.9487  -6.5843  -6.4857  -6.1484  -6.1418  -5.8548  -5.4101  -5.2791
    -5.2384  -5.1926  -4.8981  -4.8794  -4.4776  -4.3581  -4.3132  -3.9599
    -1.4340   0.2118   0.9741   1.0292   1.1064   1.1441   1.1686   1.4042
     1.4735   1.5131   1.5445   1.6719   1.7777   1.8444   1.8983   1.9215
     2.0028   2.0627   2.1231   2.1717   2.2886   2.3620

          k =-0.1667-0.4811 0.0000 ( 59291 PWs)   bands (ev):

   -68.6946 -68.6852 -40.3710 -40.2755 -40.1125 -40.1030 -40.0714 -40.0618
   -21.1066 -20.9040 -20.7135 -20.1514 -19.7952 -19.4575 -19.3078 -19.1652
   -19.0053 -18.7699 -18.6294 -18.5364 -18.1370 -18.0830 -17.9126 -17.7144
   -12.3402 -12.1054 -12.0372 -11.8991 -11.6735 -11.6506 -11.5452 -10.9343
   -10.8819 -10.6154 -10.5158  -9.8518  -9.6856  -9.3282  -9.1032  -8.6389
    -8.6150  -8.5446  -8.3817  -8.3510  -8.1537  -8.1009  -8.0559  -8.0421
    -7.6799  -7.6157  -7.4863  -7.4666  -7.3336  -7.1627  -7.0603  -6.8396
    -6.6137  -6.3690  -6.1562  -6.1502  -5.9518  -5.9208  -5.7755  -5.7254
    -5.4437  -5.3783  -5.1812  -5.0279  -4.4178  -4.3373  -4.0701  -3.7485
    -1.4394   0.3690   0.9236   0.9832   1.0390   1.0894   1.2033   1.2257
     1.3512   1.4180   1.5432   1.7388   1.7924   1.8316   1.8730   2.0803
     2.1147   2.1346   2.1568   2.2135   2.2872   2.3059

          k = 0.5000-0.0962 0.0000 ( 59291 PWs)   bands (ev):

   -68.6946 -68.6852 -40.3710 -40.2755 -40.1125 -40.1030 -40.0714 -40.0618
   -21.1045 -20.9096 -20.7098 -20.1500 -19.7954 -19.4587 -19.3122 -19.1616
   -19.0059 -18.7702 -18.6224 -18.5409 -18.1280 -18.0950 -17.9105 -17.7142
   -12.3395 -12.1057 -12.0355 -11.9023 -11.6833 -11.6387 -11.5471 -10.9345
   -10.8802 -10.6141 -10.5177  -9.8500  -9.6862  -9.3290  -9.1028  -8.6320
    -8.6153  -8.5433  -8.3848  -8.3716  -8.1521  -8.0878  -8.0662  -8.0328
    -7.6772  -7.6162  -7.4856  -7.4676  -7.3290  -7.1639  -7.0606  -6.8398
    -6.6139  -6.3743  -6.1683  -6.1496  -5.9421  -5.9201  -5.7750  -5.7264
    -5.4447  -5.3781  -5.1657  -5.0382  -4.4003  -4.3582  -4.0680  -3.7484
    -1.4160   0.1329   0.9389   1.0053   1.0678   1.1099   1.1806   1.2438
     1.3783   1.6003   1.6901   1.7639   1.8454   1.9037   1.9527   1.9907
     2.0294   2.1080   2.1909   2.2569   2.2883   2.3506

          k =-0.3333-0.3849 0.0000 ( 59291 PWs)   bands (ev):

   -68.6946 -68.6852 -40.3710 -40.2755 -40.1125 -40.1030 -40.0714 -40.0618
   -21.1053 -20.9076 -20.7112 -20.1499 -19.7967 -19.4574 -19.3086 -19.1640
   -19.0081 -18.7690 -18.6234 -18.5403 -18.1297 -18.0930 -17.9106 -17.7143
   -12.3399 -12.1043 -12.0373 -11.9016 -11.6742 -11.6488 -11.5462 -10.9343
   -10.8799 -10.6136 -10.5185  -9.8507  -9.6863  -9.3284  -9.1032  -8.6340
    -8.6144  -8.5448  -8.3827  -8.3641  -8.1535  -8.0927  -8.0559  -8.0436
    -7.6775  -7.6147  -7.4912  -7.4628  -7.3283  -7.1640  -7.0610  -6.8448
    -6.6123  -6.3692  -6.1574  -6.1511  -5.9500  -5.9195  -5.7753  -5.7330
    -5.4445  -5.3749  -5.1660  -5.0381  -4.4027  -4.3560  -4.0675  -3.7485
    -1.4240   0.1992   0.9312   0.9822   1.0652   1.1050   1.2201   1.2660
     1.3377   1.5142   1.6759   1.7626   1.8447   1.9026   1.9298   1.9994
     2.0572   2.0734   2.1408   2.2263   2.3029   2.3258

          k = 0.5000 0.0962 0.0000 ( 59291 PWs)   bands (ev):

   -68.6946 -68.6852 -40.3710 -40.2755 -40.1125 -40.1030 -40.0714 -40.0618
   -21.1045 -20.9096 -20.7098 -20.1500 -19.7954 -19.4587 -19.3122 -19.1616
   -19.0059 -18.7702 -18.6224 -18.5409 -18.1280 -18.0950 -17.9105 -17.7142
   -12.3395 -12.1057 -12.0355 -11.9023 -11.6833 -11.6387 -11.5471 -10.9344
   -10.8802 -10.6142 -10.5177  -9.8500  -9.6862  -9.3290  -9.1027  -8.6320
    -8.6153  -8.5433  -8.3848  -8.3716  -8.1521  -8.0878  -8.0661  -8.0327
    -7.6772  -7.6161  -7.4856  -7.4677  -7.3289  -7.1639  -7.0606  -6.8398
    -6.6138  -6.3743  -6.1682  -6.1495  -5.9421  -5.9201  -5.7751  -5.7264
    -5.4448  -5.3781  -5.1657  -5.0382  -4.4003  -4.3582  -4.0680  -3.7484
    -1.4160   0.1329   0.9389   1.0053   1.0678   1.1099   1.1806   1.2439
     1.3783   1.6003   1.6901   1.7639   1.8453   1.9037   1.9527   1.9907
     2.0294   2.1079   2.1909   2.2570   2.2883   2.3505

          k =-0.3333 0.3849 0.0000 ( 59291 PWs)   bands (ev):

   -68.6946 -68.6852 -40.3710 -40.2755 -40.1125 -40.1030 -40.0714 -40.0618
   -21.1053 -20.9076 -20.7112 -20.1499 -19.7967 -19.4574 -19.3086 -19.1640
   -19.0081 -18.7691 -18.6233 -18.5403 -18.1296 -18.0930 -17.9106 -17.7143
   -12.3399 -12.1043 -12.0373 -11.9016 -11.6742 -11.6488 -11.5462 -10.9344
   -10.8799 -10.6136 -10.5185  -9.8507  -9.6863  -9.3284  -9.1032  -8.6340
    -8.6145  -8.5448  -8.3827  -8.3641  -8.1535  -8.0927  -8.0559  -8.0435
    -7.6775  -7.6147  -7.4912  -7.4628  -7.3283  -7.1640  -7.0611  -6.8448
    -6.6124  -6.3692  -6.1574  -6.1511  -5.9500  -5.9196  -5.7753  -5.7330
    -5.4444  -5.3749  -5.1660  -5.0381  -4.4027  -4.3560  -4.0675  -3.7485
    -1.4240   0.1992   0.9312   0.9822   1.0652   1.1050   1.2201   1.2660
     1.3377   1.5142   1.6759   1.7626   1.8447   1.9026   1.9299   1.9994
     2.0573   2.0734   2.1408   2.2263   2.3028   2.3256

          k =-0.1667-0.0962 0.0000 ( 59226 PWs)   bands (ev):

   -68.6946 -68.6852 -40.3710 -40.2755 -40.1125 -40.1030 -40.0714 -40.0618
   -21.3041 -20.5256 -20.3371 -20.3301 -19.9783 -19.9716 -19.7975 -18.7190
   -18.7127 -18.3664 -18.3573 -18.3464 -18.2616 -18.2498 -18.0689 -18.0627
   -12.5006 -12.4937 -12.4005 -11.5736 -11.5688 -11.4206 -11.4109 -10.9182
   -10.9161  -9.9219  -9.9183  -9.6676  -9.3690  -9.3624  -9.2224  -9.2199
    -9.0347  -9.0325  -8.8999  -8.3158  -8.3129  -7.8939  -7.8908  -7.8538
    -7.8355  -7.7629  -7.5884  -7.5666  -7.1052  -7.0760  -6.9514  -6.8801
    -6.8780  -6.8365  -6.5234  -6.5204  -6.2499  -5.3211  -5.3001  -5.1350
    -5.0575  -4.7881  -4.7743  -4.7331  -4.6015  -4.5831  -4.3329  -4.3172
    -1.4584   0.3951   0.9195   1.0335   1.0714   1.1193   1.1491   1.3017
     1.4807   1.5427   1.5972   1.6385   1.7666   1.8753   1.8862   1.9207
     1.9631   2.0283   2.1140   2.1701   2.2414   2.3013

          k =-0.0000-0.1925 0.0000 ( 59226 PWs)   bands (ev):

   -68.6946 -68.6852 -40.3710 -40.2755 -40.1125 -40.1030 -40.0714 -40.0618
   -21.3042 -20.5219 -20.3450 -20.3287 -19.9790 -19.9654 -19.8002 -18.7216
   -18.7075 -18.3741 -18.3681 -18.3425 -18.2487 -18.2469 -18.0745 -18.0607
   -12.4982 -12.4963 -12.4003 -11.5775 -11.5663 -11.4162 -11.4127 -10.9199
   -10.9159  -9.9225  -9.9174  -9.6681  -9.3683  -9.3625  -9.2224  -9.2199
    -9.0341  -9.0335  -8.9003  -8.3162  -8.3115  -7.8929  -7.8916  -7.8443
    -7.8316  -7.7639  -7.6045  -7.5735  -7.0932  -7.0695  -6.9501  -6.8827
    -6.8767  -6.8448  -6.5251  -6.5183  -6.2501  -5.3199  -5.2954  -5.1355
    -5.0570  -4.8081  -4.7818  -4.7309  -4.5826  -4.5764  -4.3389  -4.3172
    -1.4654   0.5252   0.8816   0.9977   1.0788   1.1146   1.1952   1.2434
     1.4349   1.5203   1.5265   1.5881   1.7312   1.8553   1.8653   1.9145
     2.0560   2.0587   2.1353   2.1492   2.2054   2.2965

          k = 0.5000-0.8660 0.0000 ( 59292 PWs)   bands (ev):

   -68.6946 -68.6852 -40.3710 -40.2755 -40.1125 -40.1030 -40.0714 -40.0618
   -21.0432 -21.0344 -20.4611 -20.4547 -19.4179 -19.4095 -19.4062 -19.3982
   -18.9855 -18.9775 -18.3155 -18.3139 -18.3130 -18.2958 -17.7848 -17.7789
   -12.0628 -12.0596 -12.0593 -12.0477 -11.8707 -11.8657 -11.3230 -11.3181
   -10.2277 -10.2237 -10.1267 -10.1241 -10.1229 -10.1179  -8.5549  -8.5414
    -8.5406  -8.5365  -8.5319  -8.5285  -7.8560  -7.8551  -7.8515  -7.8508
    -7.8163  -7.8105  -7.7593  -7.7374  -7.4853  -7.4761  -6.6034  -6.5992
    -6.3269  -6.3015  -6.2928  -6.2813  -6.1844  -6.1768  -5.6888  -5.6824
    -5.5399  -5.5320  -4.7009  -4.6934  -4.6823  -4.6800  -3.8661  -3.8525
    -1.4159   0.1312   0.9421   0.9976   1.0985   1.1349   1.2110   1.3692
     1.5152   1.5474   1.5786   1.6999   1.7378   1.8664   1.9093   1.9514
     1.9845   2.0378   2.1749   2.2185   2.3051   2.3168

          k =-1.0000 0.0000 0.0000 ( 59292 PWs)   bands (ev):

   -68.6946 -68.6852 -40.3710 -40.2755 -40.1125 -40.1030 -40.0714 -40.0618
   -21.0618 -21.0137 -20.4675 -20.4518 -19.4167 -19.4113 -19.4076 -19.3919
   -19.0001 -18.9645 -18.3467 -18.3319 -18.2814 -18.2785 -17.7891 -17.7757
   -12.0863 -12.0763 -12.0349 -12.0287 -11.8755 -11.8617 -11.3402 -11.3027
   -10.2366 -10.2258 -10.1260 -10.1247 -10.1163 -10.1147  -8.5937  -8.5604
    -8.5530  -8.5168  -8.5160  -8.4840  -7.8651  -7.8636  -7.8509  -7.8478
    -7.8076  -7.8064  -7.7677  -7.7401  -7.5024  -7.4604  -6.6051  -6.5963
    -6.3219  -6.3009  -6.2975  -6.2689  -6.1977  -6.1660  -5.7084  -5.6674
    -5.5548  -5.5168  -4.7616  -4.7151  -4.6471  -4.6356  -3.8704  -3.8493
    -1.4468   0.4885   0.9238   1.0163   1.0437   1.0639   1.2279   1.2511
     1.3447   1.3461   1.6253   1.6408   1.6761   1.8128   1.8174   1.8398
     2.1288   2.1487   2.1546   2.1903   2.2884   2.3036

     the Fermi energy is    -1.1656 ev

!    total energy              =   -1133.82777302 Ry

     total all-electron energy =     -6753.503476 Ry
     estimated scf accuracy    <       0.00000007 Ry
     smearing contrib. (-TS)   =      -0.00000000 Ry
     internal energy E=F+TS    =   -1133.82777302 Ry

     The total energy is F=E-TS. E is the sum of the following terms:
     one-electron contribution =   -3953.02368634 Ry
     hartree contribution      =    2004.71584991 Ry
     xc contribution           =    -186.02154707 Ry
     ewald contribution        =    1359.87810791 Ry
     DFT-D3 Dispersion         =      -0.13364468 Ry
     one-center paw contrib.   =    -359.24285275 Ry

     total magnetization       =    10.00 Bohr mag/cell
     absolute magnetization    =    10.01 Bohr mag/cell

     convergence has been achieved in  14 iterations

     Writing output data file ./mytmp/Crdimer0.1415-0.2.save/
 
     init_run     :     18.53s CPU     19.87s WALL (       1 calls)
     electrons    :    483.37s CPU    514.99s WALL (       1 calls)

     Called by init_run:
     wfcinit      :     13.83s CPU     14.63s WALL (       1 calls)
     potinit      :      1.49s CPU      1.60s WALL (       1 calls)
     hinit0       :      1.56s CPU      1.67s WALL (       1 calls)

     Called by electrons:
     c_bands      :    386.41s CPU    409.34s WALL (      14 calls)
     sum_band     :     75.29s CPU     80.27s WALL (      14 calls)
     v_of_rho     :      4.61s CPU      4.92s WALL (      15 calls)
     newd         :      9.42s CPU     12.44s WALL (      15 calls)
     PAW_pot      :      6.88s CPU      7.48s WALL (      15 calls)
     mix_rho      :      0.98s CPU      1.00s WALL (      14 calls)

     Called by c_bands:
     init_us_2    :      5.03s CPU      5.06s WALL (     870 calls)
     cegterg      :    374.06s CPU    396.93s WALL (     420 calls)

     Called by *egterg:
     cdiaghg      :     24.93s CPU     39.12s WALL (    2748 calls)
     h_psi        :    241.70s CPU    249.68s WALL (    2778 calls)
     s_psi        :     27.07s CPU     27.10s WALL (    2778 calls)
     g_psi        :      0.70s CPU      0.71s WALL (    2328 calls)

     Called by h_psi:
     h_psi:calbec :     27.81s CPU     28.44s WALL (    2778 calls)
     vloc_psi     :    184.62s CPU    191.87s WALL (    2778 calls)
     add_vuspsi   :     27.17s CPU     27.26s WALL (    2778 calls)

     General routines
     calbec       :     37.21s CPU     37.99s WALL (    3198 calls)
     fft          :      4.28s CPU      5.02s WALL (     369 calls)
     ffts         :      0.11s CPU      0.12s WALL (      58 calls)
     fftw         :    190.32s CPU    197.74s WALL (  248204 calls)
     interpolate  :      0.42s CPU      0.44s WALL (      30 calls)
 
     Parallel routines
     fft_scatt_xy :     30.70s CPU     31.74s WALL (  248631 calls)
     fft_scatt_yz :     74.41s CPU     78.40s WALL (  248631 calls)
 
     PWSCF        :   8m23.91s CPU   8m59.04s WALL

 
   This run was terminated on:  13:12:54   2Apr2021            

=------------------------------------------------------------------------------=
   JOB DONE.
=------------------------------------------------------------------------------=
