
     Program PWSCF v.6.7MaX starts on  2Apr2021 at 14:50:54 

     This program is part of the open-source Quantum ESPRESSO suite
     for quantum simulation of materials; please cite
         "P. Giannozzi et al., J. Phys.:Condens. Matter 21 395502 (2009);
         "P. Giannozzi et al., J. Phys.:Condens. Matter 29 465901 (2017);
          URL http://www.quantum-espresso.org", 
     in publications or presentations arising from this work. More details at
     http://www.quantum-espresso.org/quote

     Parallel version (MPI), running on    48 processors

     MPI processes distributed on     1 nodes
     R & G space division:  proc/nbgrp/npool/nimage =      48
     Reading input from Crdimer0.143-0.1.scf.in

     Current dimensions of program PWSCF are:
     Max number of different atomic species (ntypx) = 10
     Max number of k-points (npk) =  40000
     Max angular momentum in pseudopotentials (lmaxx) =  3
     file N.pbe-n-kjpaw_psl.1.0.0.UPF: wavefunction(s)  2S renormalized
     file Cr.pbe-spn-kjpaw_psl.1.0.0.UPF: wavefunction(s)  3S 3P 3D renormalized
     file Cr.pbe-spn-kjpaw_psl.1.0.0.UPF: wavefunction(s)  3S 3P 3D renormalized

     --------------------------------------------
     Parameters for DFT-D3 Dispersion Correction:
     --------------------------------------------
       Reference C6 values for interpolation: 

         atom   Coordination number   C6
         B          0.000           214.36
         B          0.971           150.74
         B          1.944           106.23
         B          2.913            62.89
         B          4.586            56.06
         N          0.000            50.54
         N          0.994            44.25
         N          2.014            39.35
         N          2.990            31.16
         Cr1        0.000          1381.48
         Cr1        1.827           571.38
         Cr1       10.619           306.69
         Cr2        0.000          1381.48
         Cr2        1.827           571.38
         Cr2       10.619           306.69

       Values used:

         atom   Coordination number  R0_AB[au]  C6      C8
         B          3.337            3.039     62.89   2505.96
         B          3.335            3.039     62.89   2506.00
         B          3.356            3.039     62.88   2505.48
         B          3.336            3.039     62.89   2505.99
         B          3.354            3.039     62.88   2505.53
         B          3.336            3.039     62.89   2505.98
         N          3.134            2.478     31.22    688.70
         N          3.134            2.478     31.22    688.70
         N          3.167            2.478     31.21    688.42
         N          3.136            2.478     31.22    688.67
         N          3.138            2.478     31.22    688.66
         N          3.134            2.478     31.22    688.70
         N          3.137            2.478     31.22    688.67
         N          3.134            2.478     31.22    688.70
         N          3.137            2.478     31.22    688.67
         B          3.336            3.039     62.89   2506.00
         B          3.335            3.039     62.89   2506.00
         B          3.336            3.039     62.89   2505.98
         B          3.354            3.039     62.88   2505.53
         B          3.337            3.039     62.89   2505.96
         B          3.336            3.039     62.89   2506.00
         N          3.137            2.478     31.22    688.67
         B          3.335            3.039     62.89   2506.01
         B          3.336            3.039     62.89   2505.99
         B          3.351            3.039     62.88   2505.60
         N          3.134            2.478     31.22    688.70
         N          3.134            2.478     31.22    688.70
         N          3.136            2.478     31.22    688.68
         N          3.136            2.478     31.22    688.68
         N          3.167            2.478     31.21    688.42
         N          3.136            2.478     31.22    688.67
         B          3.351            3.039     62.88   2505.60
         Cr1        0.694            3.252   1341.37 123793.40
         Cr2        0.694            3.252   1341.37 123793.40

         Molecular C6 ( Ry / a.u.^6 ) =     78704.93


     Subspace diagonalization in iterative solution of the eigenvalue problem:
     one sub-group per band group will be used
     scalapack distributed-memory algorithm (size of sub-group:  6*  6 procs)

 
     Parallelization info
     --------------------
     sticks:   dense  smooth     PW     G-vecs:    dense   smooth      PW
     Min         235      98     26                36277     9874    1408
     Max         236      99     27                36282     9883    1425
     Sum       11311    4741   1285              1741401   474235   68095
 


     bravais-lattice index     =            4
     lattice parameter (alat)  =      18.9275  a.u.
     unit-cell volume          =   10553.3021 (a.u.)^3
     number of atoms/cell      =           34
     number of atomic types    =            4
     number of electrons       =       156.00
     number of Kohn-Sham states=           94
     kinetic-energy cutoff     =      48.0000  Ry
     charge density cutoff     =     457.0000  Ry
     scf convergence threshold =      1.0E-07
     mixing beta               =       0.5000
     number of iterations used =            8  plain     mixing
     Exchange-correlation= SLA  PW   PBX  PBC
                           (   1   4   3   4   0   0   0)

     celldm(1)=  18.927497  celldm(2)=   0.000000  celldm(3)=   1.797125
     celldm(4)=   0.000000  celldm(5)=   0.000000  celldm(6)=   0.000000

     crystal axes: (cart. coord. in units of alat)
               a(1) = (   1.000000   0.000000   0.000000 )  
               a(2) = (  -0.500000   0.866025   0.000000 )  
               a(3) = (   0.000000   0.000000   1.797125 )  

     reciprocal axes: (cart. coord. in units 2 pi/alat)
               b(1) = (  1.000000  0.577350  0.000000 )  
               b(2) = (  0.000000  1.154701  0.000000 )  
               b(3) = (  0.000000  0.000000  0.556444 )  


     PseudoPot. # 1 for B  read from file:
     /home/sf05/q-e-qe-6.7MaX-Release/pseudo/B.pbe-n-kjpaw_psl.1.0.0.UPF
     MD5 check sum: d9c678ba5d3b2fd7b74e61139c9288d8
     Pseudo is Projector augmented-wave + core cor, Zval =  3.0
     Generated using "atomic" code by A. Dal Corso  v.5.1.2
     Shape of augmentation charge: PSQ
     Using radial grid of 1059 points,  4 beta functions with: 
                l(1) =   0
                l(2) =   0
                l(3) =   1
                l(4) =   1
     Q(r) pseudized with 0 coefficients 


     PseudoPot. # 2 for N  read from file:
     /home/sf05/q-e-qe-6.7MaX-Release/pseudo/N.pbe-n-kjpaw_psl.1.0.0.UPF
     MD5 check sum: e0e4e94a9c4025c5b51bd7d8793849bd
     Pseudo is Projector augmented-wave + core cor, Zval =  5.0
     Generated using "atomic" code by A. Dal Corso  v.5.1.2
     Shape of augmentation charge: PSQ
     Using radial grid of 1085 points,  4 beta functions with: 
                l(1) =   0
                l(2) =   0
                l(3) =   1
                l(4) =   1
     Q(r) pseudized with 0 coefficients 


     PseudoPot. # 3 for Cr read from file:
     /home/sf05/q-e-qe-6.7MaX-Release/pseudo/Cr.pbe-spn-kjpaw_psl.1.0.0.UPF
     MD5 check sum: 198f1a2427a48552563eee314eba32ba
     Pseudo is Projector augmented-wave + core cor, Zval = 14.0
     Generated using &quot;atomic&quot; code by A. Dal Corso  v.6.3
     Shape of augmentation charge: PSQ
     Using radial grid of 1183 points,  6 beta functions with: 
                l(1) =   0
                l(2) =   0
                l(3) =   1
                l(4) =   1
                l(5) =   2
                l(6) =   2
     Q(r) pseudized with 0 coefficients 


     PseudoPot. # 4 for Cr read from file:
     /home/sf05/q-e-qe-6.7MaX-Release/pseudo/Cr.pbe-spn-kjpaw_psl.1.0.0.UPF
     MD5 check sum: 198f1a2427a48552563eee314eba32ba
     Pseudo is Projector augmented-wave + core cor, Zval = 14.0
     Generated using &quot;atomic&quot; code by A. Dal Corso  v.6.3
     Shape of augmentation charge: PSQ
     Using radial grid of 1183 points,  6 beta functions with: 
                l(1) =   0
                l(2) =   0
                l(3) =   1
                l(4) =   1
                l(5) =   2
                l(6) =   2
     Q(r) pseudized with 0 coefficients 


     atomic species   valence    mass     pseudopotential
        B              3.00    10.81100     B ( 1.00)
        N              5.00    14.00674     N ( 1.00)
        Cr1           14.00    51.99610     Cr( 1.00)
        Cr2           14.00    51.99610     Cr( 1.00)

     Starting magnetic structure 
     atomic species   magnetization
        B            0.000
        N            0.000
        Cr1          1.000
        Cr2          1.000

     No symmetry found



   Cartesian axes

     site n.     atom                  positions (alat units)
         1           B   tau(   1) = (  -0.1250000   0.2165064   0.8985623  )
         2           B   tau(   2) = (   0.3750000   0.6495191   0.8985623  )
         3           B   tau(   3) = (   0.2500000   0.0000000   0.8985623  )
         4           B   tau(   4) = (   0.7500000   0.0000000   0.8985623  )
         5           B   tau(   5) = (   0.1250000   0.2165064   0.8985623  )
         6           B   tau(   6) = (  -0.3750000   0.6495191   0.8985623  )
         7           N   tau(   7) = (   0.7500005   0.2886748   0.8985623  )
         8           N   tau(   8) = (   0.3750005   0.5051812   0.8985623  )
         9           N   tau(   9) = (   0.3750005   0.0721685   0.8985623  )
        10           N   tau(  10) = (   0.6250005   0.0721685   0.8985623  )
        11           N   tau(  11) = (   0.2500005   0.2886748   0.8985623  )
        12           N   tau(  12) = (   0.6250005   0.5051812   0.8985623  )
        13           N   tau(  13) = (   0.0000005   0.2886748   0.8985623  )
        14           N   tau(  14) = (   0.2500005   0.7216875   0.8985623  )
        15           N   tau(  15) = (  -0.2499995   0.7216875   0.8985623  )
        16           B   tau(  16) = (   0.0000000   0.4330127   0.8985623  )
        17           B   tau(  17) = (   0.1250000   0.6495191   0.8985623  )
        18           B   tau(  18) = (  -0.1250000   0.6495191   0.8985623  )
        19           B   tau(  19) = (   0.3750000   0.2165064   0.8985623  )
        20           B   tau(  20) = (   0.6250000   0.2165064   0.8985623  )
        21           B   tau(  21) = (   0.5000000   0.4330127   0.8985623  )
        22           N   tau(  22) = (   0.5000005   0.2886748   0.8985623  )
        23           B   tau(  23) = (  -0.2500000   0.4330127   0.8985623  )
        24           B   tau(  24) = (   0.2500000   0.4330127   0.8985623  )
        25           B   tau(  25) = (   0.5000000   0.0000000   0.8985623  )
        26           N   tau(  26) = (  -0.1249995   0.5051812   0.8985623  )
        27           N   tau(  27) = (   0.1250005   0.5051812   0.8985623  )
        28           N   tau(  28) = (   0.0000005   0.7216875   0.8985623  )
        29           N   tau(  29) = (   0.5000005   0.7216875   0.8985623  )
        30           N   tau(  30) = (   0.1250005   0.0721685   0.8985623  )
        31           N   tau(  31) = (   0.8750005   0.0721685   0.8985623  )
        32           B   tau(  32) = (   0.0000000   0.0000000   0.8985623  )
        33           Cr1 tau(  33) = (   0.3930000   0.0866025   1.2040735  )
        34           Cr2 tau(  34) = (   0.1070000   0.0866025   1.2040735  )

     number of k points=    15  Gaussian smearing, width (Ry)=  0.0000
                       cart. coord. in units 2pi/alat
        k(    1) = (   0.1666667   0.2886751   0.0000000), wk =   0.0740741
        k(    2) = (   0.1666667  -0.4811252   0.0000000), wk =   0.0740741
        k(    3) = (   0.1666667  -0.0962250   0.0000000), wk =   0.0740741
        k(    4) = (  -0.5000000  -0.8660254   0.0000000), wk =   0.0370370
        k(    5) = (  -0.1666667   0.2886751   0.0000000), wk =   0.0740741
        k(    6) = (   0.3333333   0.0000000   0.0000000), wk =   0.0740741
        k(    7) = (  -0.1666667  -0.4811252   0.0000000), wk =   0.0740741
        k(    8) = (   0.5000000  -0.0962250   0.0000000), wk =   0.0740741
        k(    9) = (  -0.3333333  -0.3849002   0.0000000), wk =   0.0740741
        k(   10) = (   0.5000000   0.0962250   0.0000000), wk =   0.0740741
        k(   11) = (  -0.3333333   0.3849002   0.0000000), wk =   0.0740741
        k(   12) = (  -0.1666667  -0.0962250   0.0000000), wk =   0.0740741
        k(   13) = (  -0.0000000  -0.1924501   0.0000000), wk =   0.0740741
        k(   14) = (   0.5000000  -0.8660254   0.0000000), wk =   0.0370370
        k(   15) = (  -1.0000000   0.0000000   0.0000000), wk =   0.0370370

     Dense  grid:  1741401 G-vectors     FFT dimensions: ( 135, 135, 240)

     Smooth grid:   474235 G-vectors     FFT dimensions: (  90,  90, 160)

     Estimated max dynamical RAM per process >     218.62 MB

     Estimated total dynamical RAM >      10.25 GB
     Generating pointlists ...
     new r_m :   0.0595 (alat units)  1.1269 (a.u.) for type    1
     new r_m :   0.0595 (alat units)  1.1269 (a.u.) for type    2
     new r_m :   0.1180 (alat units)  2.2330 (a.u.) for type    3
     new r_m :   0.1180 (alat units)  2.2330 (a.u.) for type    4

     Initial potential from superposition of free atoms

     starting charge  155.99382, renormalised to  156.00000

     negative rho (up, down):  6.705E-03 4.655E-04
     Starting wfcs are  148 randomized atomic wfcs
     Checking if some PAW data can be deallocated... 

     total cpu time spent up to now is       20.0 secs

     Self-consistent Calculation

     iteration #  1     ecut=    48.00 Ry     beta= 0.50
     Davidson diagonalization with overlap
     ethr =  1.00E-02,  avg # of iterations =  2.8

     negative rho (up, down):  4.886E-03 2.908E-03

     total cpu time spent up to now is       63.8 secs

     total energy              =   -1130.74198725 Ry
     estimated scf accuracy    <      11.35537294 Ry

     total magnetization       =    12.00 Bohr mag/cell
     absolute magnetization    =    12.16 Bohr mag/cell

     iteration #  2     ecut=    48.00 Ry     beta= 0.50
     Davidson diagonalization with overlap
     ethr =  7.28E-03,  avg # of iterations =  2.7

     negative rho (up, down):  1.082E-02 1.014E-02

     total cpu time spent up to now is      104.6 secs

     total energy              =   -1132.49093893 Ry
     estimated scf accuracy    <       4.82087108 Ry

     total magnetization       =     9.11 Bohr mag/cell
     absolute magnetization    =     9.55 Bohr mag/cell

     iteration #  3     ecut=    48.00 Ry     beta= 0.50
     Davidson diagonalization with overlap
     ethr =  3.09E-03,  avg # of iterations =  7.6

     negative rho (up, down):  7.181E-03 7.155E-03

     total cpu time spent up to now is      150.0 secs

     total energy              =   -1133.49875149 Ry
     estimated scf accuracy    <       1.38370090 Ry

     total magnetization       =    10.00 Bohr mag/cell
     absolute magnetization    =    10.20 Bohr mag/cell

     iteration #  4     ecut=    48.00 Ry     beta= 0.50
     Davidson diagonalization with overlap
     ethr =  8.87E-04,  avg # of iterations =  5.6

     negative rho (up, down):  6.405E-03 5.758E-03

     total cpu time spent up to now is      187.9 secs

     total energy              =   -1133.80589382 Ry
     estimated scf accuracy    <       0.26654511 Ry

     total magnetization       =    10.00 Bohr mag/cell
     absolute magnetization    =    10.06 Bohr mag/cell

     iteration #  5     ecut=    48.00 Ry     beta= 0.50
     Davidson diagonalization with overlap
     ethr =  1.71E-04,  avg # of iterations = 10.0

     negative rho (up, down):  4.033E-03 3.936E-03

     total cpu time spent up to now is      232.0 secs

     total energy              =   -1133.78303925 Ry
     estimated scf accuracy    <       0.28210511 Ry

     total magnetization       =    10.00 Bohr mag/cell
     absolute magnetization    =    10.02 Bohr mag/cell

     iteration #  6     ecut=    48.00 Ry     beta= 0.50
     Davidson diagonalization with overlap
     ethr =  1.71E-04,  avg # of iterations =  5.9

     negative rho (up, down):  3.530E-03 3.923E-03

     total cpu time spent up to now is      271.7 secs

     total energy              =   -1133.81436158 Ry
     estimated scf accuracy    <       0.10342181 Ry

     total magnetization       =    10.00 Bohr mag/cell
     absolute magnetization    =    10.02 Bohr mag/cell

     iteration #  7     ecut=    48.00 Ry     beta= 0.50
     Davidson diagonalization with overlap
     ethr =  6.63E-05,  avg # of iterations =  5.7

     negative rho (up, down):  3.258E-03 3.762E-03

     total cpu time spent up to now is      311.2 secs

     total energy              =   -1133.82551011 Ry
     estimated scf accuracy    <       0.01949007 Ry

     total magnetization       =    10.00 Bohr mag/cell
     absolute magnetization    =    10.02 Bohr mag/cell

     iteration #  8     ecut=    48.00 Ry     beta= 0.50
     Davidson diagonalization with overlap
     ethr =  1.25E-05,  avg # of iterations =  6.3

     negative rho (up, down):  3.143E-03 3.762E-03

     total cpu time spent up to now is      348.9 secs

     total energy              =   -1133.82739291 Ry
     estimated scf accuracy    <       0.00121161 Ry

     total magnetization       =    10.00 Bohr mag/cell
     absolute magnetization    =    10.02 Bohr mag/cell

     iteration #  9     ecut=    48.00 Ry     beta= 0.50
     Davidson diagonalization with overlap
     c_bands:  2 eigenvalues not converged
     c_bands:  2 eigenvalues not converged
     ethr =  7.77E-07,  avg # of iterations =  9.2

     negative rho (up, down):  3.117E-03 3.777E-03

     total cpu time spent up to now is      398.6 secs

     total energy              =   -1133.82768900 Ry
     estimated scf accuracy    <       0.00019029 Ry

     total magnetization       =    10.00 Bohr mag/cell
     absolute magnetization    =    10.01 Bohr mag/cell

     iteration # 10     ecut=    48.00 Ry     beta= 0.50
     Davidson diagonalization with overlap
     ethr =  1.22E-07,  avg # of iterations =  2.9

     negative rho (up, down):  3.107E-03 3.782E-03

     total cpu time spent up to now is      434.8 secs

     total energy              =   -1133.82772961 Ry
     estimated scf accuracy    <       0.00008373 Ry

     total magnetization       =    10.00 Bohr mag/cell
     absolute magnetization    =    10.01 Bohr mag/cell

     iteration # 11     ecut=    48.00 Ry     beta= 0.50
     Davidson diagonalization with overlap
     ethr =  5.37E-08,  avg # of iterations =  2.8

     negative rho (up, down):  3.102E-03 3.789E-03

     total cpu time spent up to now is      468.7 secs

     total energy              =   -1133.82774753 Ry
     estimated scf accuracy    <       0.00001051 Ry

     total magnetization       =    10.00 Bohr mag/cell
     absolute magnetization    =    10.01 Bohr mag/cell

     iteration # 12     ecut=    48.00 Ry     beta= 0.50
     Davidson diagonalization with overlap
     ethr =  6.73E-09,  avg # of iterations =  4.9

     negative rho (up, down):  3.099E-03 3.791E-03

     total cpu time spent up to now is      506.9 secs

     total energy              =   -1133.82775240 Ry
     estimated scf accuracy    <       0.00000131 Ry

     total magnetization       =    10.00 Bohr mag/cell
     absolute magnetization    =    10.01 Bohr mag/cell

     iteration # 13     ecut=    48.00 Ry     beta= 0.50
     Davidson diagonalization with overlap
     ethr =  8.38E-10,  avg # of iterations =  3.7

     negative rho (up, down):  3.098E-03 3.793E-03

     total cpu time spent up to now is      543.6 secs

     total energy              =   -1133.82775340 Ry
     estimated scf accuracy    <       0.00000035 Ry

     total magnetization       =    10.00 Bohr mag/cell
     absolute magnetization    =    10.01 Bohr mag/cell

     iteration # 14     ecut=    48.00 Ry     beta= 0.50
     Davidson diagonalization with overlap
     ethr =  2.27E-10,  avg # of iterations =  3.9

     negative rho (up, down):  3.097E-03 3.794E-03
 
     Magnetic moment per site:
     atom:    1    charge:    0.8807    magn:    0.0001    constr:    0.0000
     atom:    2    charge:    0.8804    magn:    0.0001    constr:    0.0000
     atom:    3    charge:    0.8792    magn:    0.0008    constr:    0.0000
     atom:    4    charge:    0.8807    magn:    0.0002    constr:    0.0000
     atom:    5    charge:    0.8801    magn:    0.0004    constr:    0.0000
     atom:    6    charge:    0.8801    magn:    0.0002    constr:    0.0000
     atom:    7    charge:    2.8611    magn:    0.0001    constr:    0.0000
     atom:    8    charge:    2.8609    magn:    0.0003    constr:    0.0000
     atom:    9    charge:    2.8611    magn:    0.0072    constr:    0.0000
     atom:   10    charge:    2.8609    magn:    0.0015    constr:    0.0000
     atom:   11    charge:    2.8605    magn:    0.0030    constr:    0.0000
     atom:   12    charge:    2.8609    magn:    0.0001    constr:    0.0000
     atom:   13    charge:    2.8598    magn:    0.0023    constr:    0.0000
     atom:   14    charge:    2.8599    magn:    0.0004    constr:    0.0000
     atom:   15    charge:    2.8596    magn:    0.0018    constr:    0.0000
     atom:   16    charge:    0.8800    magn:    0.0002    constr:    0.0000
     atom:   17    charge:    0.8801    magn:    0.0001    constr:    0.0000
     atom:   18    charge:    0.8798    magn:    0.0002    constr:    0.0000
     atom:   19    charge:    0.8795    magn:    0.0004    constr:    0.0000
     atom:   20    charge:    0.8801    magn:    0.0001    constr:    0.0000
     atom:   21    charge:    0.8797    magn:    0.0002    constr:    0.0000
     atom:   22    charge:    2.8611    magn:    0.0023    constr:    0.0000
     atom:   23    charge:    0.8799    magn:    0.0001    constr:    0.0000
     atom:   24    charge:    0.8797    magn:    0.0002    constr:    0.0000
     atom:   25    charge:    0.8804    magn:    0.0002    constr:    0.0000
     atom:   26    charge:    2.8598    magn:    0.0001    constr:    0.0000
     atom:   27    charge:    2.8598    magn:    0.0003    constr:    0.0000
     atom:   28    charge:    2.8596    magn:    0.0019    constr:    0.0000
     atom:   29    charge:    2.8594    magn:    0.0019    constr:    0.0000
     atom:   30    charge:    2.8598    magn:    0.0072    constr:    0.0000
     atom:   31    charge:    2.8596    magn:    0.0015    constr:    0.0000
     atom:   32    charge:    0.8807    magn:    0.0002    constr:    0.0000
     atom:   33    charge:   12.5473    magn:    4.2561    constr:    0.0000
     atom:   34    charge:   12.5472    magn:    4.2561    constr:    0.0000

     total cpu time spent up to now is      579.8 secs

     End of self-consistent calculation

 ------ SPIN UP ------------


          k = 0.1667 0.2887 0.0000 ( 59267 PWs)   bands (ev):

   -72.8826 -72.8755 -44.4279 -44.3555 -44.2922 -44.2852 -44.2508 -44.2437
   -21.2537 -20.6670 -20.6624 -20.1097 -20.1045 -19.5925 -19.5904 -19.1059
   -18.7058 -18.6978 -18.4618 -18.4587 -18.2019 -18.0912 -18.0831 -17.8558
   -12.4906 -12.2112 -12.2092 -11.8265 -11.8239 -11.6647 -11.1978 -11.1954
   -10.3979 -10.3742 -10.1234 -10.1211  -9.5955  -9.5943  -8.8439  -8.8321
    -8.8301  -8.7717  -8.7686  -8.6024  -8.2031  -8.0621  -8.0192  -7.8360
    -7.8333  -7.4451  -7.4430  -7.2882  -7.2670  -7.2143  -7.2129  -6.9649
    -6.9631  -6.5751  -6.5414  -6.1603  -6.1590  -5.8786  -5.4248  -5.3111
    -5.2771  -5.2064  -4.9176  -4.9080  -4.5148  -4.3624  -4.3430  -3.9857
    -2.8552  -2.0242  -2.0081  -1.8243  -1.6507  -1.5607  -1.4991  -1.4904
    -1.3893  -1.3666  -1.2959  -0.7542   0.6433   0.8317   1.0944   1.1938
     1.2777   1.4562   1.5163   1.5746   1.6199   1.7882

          k = 0.1667-0.4811 0.0000 ( 59291 PWs)   bands (ev):

   -72.8826 -72.8755 -44.4279 -44.3555 -44.2922 -44.2852 -44.2508 -44.2437
   -21.1241 -20.9174 -20.7297 -20.1677 -19.8109 -19.4725 -19.3238 -19.1814
   -19.0203 -18.7844 -18.6516 -18.5485 -18.1574 -18.0927 -17.9284 -17.7302
   -12.3551 -12.1199 -12.0505 -11.9117 -11.6863 -11.6650 -11.5584 -10.9479
   -10.8968 -10.6301 -10.5283  -9.8670  -9.6994  -9.3421  -9.1172  -8.6773
    -8.6295  -8.5596  -8.3946  -8.3720  -8.1676  -8.1297  -8.0692  -8.0561
    -7.6961  -7.6295  -7.5007  -7.4798  -7.3641  -7.1766  -7.0738  -6.8681
    -6.6285  -6.3947  -6.1867  -6.1642  -5.9789  -5.9355  -5.7901  -5.7507
    -5.4573  -5.4020  -5.2239  -5.0442  -4.4553  -4.3486  -4.0956  -3.7741
    -2.8523  -2.0247  -2.0077  -1.8210  -1.6492  -1.5604  -1.5014  -1.4923
    -1.3894  -1.3665  -1.2963  -0.7575   0.5622   0.8357   1.0726   1.1374
     1.2076   1.2629   1.3972   1.8350   1.9265   2.1037

          k = 0.1667-0.0962 0.0000 ( 59226 PWs)   bands (ev):

   -72.8826 -72.8755 -44.4279 -44.3555 -44.2922 -44.2851 -44.2508 -44.2437
   -21.3200 -20.5433 -20.3547 -20.3415 -19.9990 -19.9840 -19.8111 -18.7409
   -18.7254 -18.3829 -18.3756 -18.3601 -18.2725 -18.2702 -18.0850 -18.0745
   -12.5120 -12.5102 -12.4140 -11.5894 -11.5804 -11.4305 -11.4287 -10.9330
   -10.9288  -9.9371  -9.9309  -9.6821  -9.3816  -9.3784  -9.2366  -9.2332
    -9.0485  -9.0463  -8.9313  -8.3312  -8.3262  -7.9084  -7.9057  -7.8903
    -7.8512  -7.7765  -7.6196  -7.5831  -7.1488  -7.0930  -6.9660  -6.8954
    -6.8904  -6.8555  -6.5391  -6.5329  -6.2637  -5.3691  -5.3168  -5.1495
    -5.0716  -4.8236  -4.8069  -4.7526  -4.6197  -4.6108  -4.3607  -4.3325
    -2.8582  -2.0238  -2.0086  -1.8276  -1.6534  -1.5609  -1.4970  -1.4887
    -1.3893  -1.3666  -1.2954  -0.7507   0.7332   0.8079   1.0533   1.2055
     1.2910   1.3401   1.5695   1.5849   1.7204   1.9019

          k =-0.5000-0.8660 0.0000 ( 59292 PWs)   bands (ev):

   -72.8826 -72.8755 -44.4279 -44.3556 -44.2922 -44.2852 -44.2508 -44.2437
   -21.0564 -21.0537 -20.4793 -20.4664 -19.4366 -19.4308 -19.4164 -19.4134
   -18.9983 -18.9955 -18.3286 -18.3250 -18.3244 -18.3234 -17.8029 -17.7912
   -12.0741 -12.0714 -12.0702 -12.0697 -11.8868 -11.8767 -11.3351 -11.3333
   -10.2438 -10.2355 -10.1421 -10.1406 -10.1326 -10.1317  -8.6000  -8.5560
    -8.5516  -8.5513  -8.5500  -8.5466  -7.8728  -7.8717  -7.8632  -7.8622
    -7.8311  -7.8235  -7.7931  -7.7544  -7.4949  -7.4936  -6.6208  -6.6114
    -6.3757  -6.3463  -6.3040  -6.2961  -6.1956  -6.1937  -5.7206  -5.7003
    -5.5505  -5.5495  -4.7353  -4.7303  -4.7026  -4.6938  -3.9002  -3.8674
    -2.8393  -2.0233  -2.0045  -1.8220  -1.6506  -1.5598  -1.5006  -1.4943
    -1.3927  -1.3735  -1.3013  -0.8808   0.7298   1.0164   1.1076   1.2129
     1.3203   1.5415   1.5806   1.6216   1.7248   1.7453

          k =-0.1667 0.2887 0.0000 ( 59267 PWs)   bands (ev):

   -72.8826 -72.8755 -44.4279 -44.3555 -44.2922 -44.2852 -44.2508 -44.2437
   -21.2537 -20.6670 -20.6624 -20.1097 -20.1045 -19.5924 -19.5904 -19.1059
   -18.7057 -18.6978 -18.4618 -18.4587 -18.2019 -18.0912 -18.0831 -17.8558
   -12.4906 -12.2112 -12.2092 -11.8265 -11.8239 -11.6647 -11.1978 -11.1954
   -10.3979 -10.3742 -10.1234 -10.1211  -9.5954  -9.5943  -8.8439  -8.8320
    -8.8301  -8.7717  -8.7686  -8.6023  -8.2031  -8.0621  -8.0192  -7.8360
    -7.8332  -7.4452  -7.4430  -7.2882  -7.2670  -7.2142  -7.2129  -6.9649
    -6.9632  -6.5751  -6.5415  -6.1603  -6.1590  -5.8786  -5.4248  -5.3111
    -5.2771  -5.2063  -4.9176  -4.9080  -4.5148  -4.3624  -4.3430  -3.9857
    -2.8552  -2.0242  -2.0081  -1.8243  -1.6507  -1.5607  -1.4991  -1.4904
    -1.3893  -1.3666  -1.2959  -0.7542   0.6433   0.8317   1.0944   1.1939
     1.2777   1.4562   1.5162   1.5746   1.6199   1.7882

          k = 0.3333 0.0000 0.0000 ( 59267 PWs)   bands (ev):

   -72.8826 -72.8755 -44.4279 -44.3555 -44.2922 -44.2851 -44.2508 -44.2437
   -21.2531 -20.6960 -20.6333 -20.1190 -20.0929 -19.6240 -19.5617 -19.1089
   -18.7237 -18.6727 -18.4746 -18.4480 -18.1967 -18.1185 -18.0646 -17.8546
   -12.4893 -12.2196 -12.2014 -11.8376 -11.8160 -11.6622 -11.2179 -11.1754
   -10.3976 -10.3730 -10.1390 -10.1066  -9.6021  -9.5857  -8.8446  -8.8377
    -8.8198  -8.7980  -8.7444  -8.6038  -8.2056  -8.1137  -7.9670  -7.8364
    -7.8302  -7.4515  -7.4358  -7.3083  -7.2399  -7.2255  -7.2013  -6.9760
    -6.9541  -6.6313  -6.4947  -6.1636  -6.1547  -5.8871  -5.4245  -5.3255
    -5.2469  -5.2068  -4.9444  -4.8841  -4.5063  -4.3999  -4.3216  -3.9834
    -2.8467  -2.0233  -2.0053  -1.8251  -1.6529  -1.5603  -1.4981  -1.4917
    -1.3916  -1.3713  -1.2989  -0.8399   0.7512   1.0153   1.1398   1.2341
     1.2961   1.4522   1.5226   1.5652   1.5721   1.8310

          k =-0.1667-0.4811 0.0000 ( 59291 PWs)   bands (ev):

   -72.8826 -72.8755 -44.4279 -44.3555 -44.2922 -44.2852 -44.2508 -44.2437
   -21.1241 -20.9174 -20.7297 -20.1677 -19.8109 -19.4725 -19.3238 -19.1814
   -19.0203 -18.7844 -18.6516 -18.5485 -18.1574 -18.0927 -17.9284 -17.7302
   -12.3551 -12.1199 -12.0505 -11.9117 -11.6863 -11.6650 -11.5584 -10.9479
   -10.8969 -10.6301 -10.5283  -9.8669  -9.6994  -9.3422  -9.1172  -8.6773
    -8.6295  -8.5596  -8.3946  -8.3720  -8.1676  -8.1297  -8.0693  -8.0562
    -7.6961  -7.6296  -7.5006  -7.4798  -7.3641  -7.1766  -7.0738  -6.8681
    -6.6285  -6.3947  -6.1867  -6.1642  -5.9789  -5.9354  -5.7900  -5.7507
    -5.4574  -5.4020  -5.2239  -5.0443  -4.4553  -4.3486  -4.0956  -3.7741
    -2.8523  -2.0247  -2.0077  -1.8210  -1.6492  -1.5604  -1.5014  -1.4923
    -1.3894  -1.3665  -1.2963  -0.7575   0.5622   0.8357   1.0726   1.1374
     1.2076   1.2628   1.3973   1.8350   1.9265   2.1037

          k = 0.5000-0.0962 0.0000 ( 59291 PWs)   bands (ev):

   -72.8826 -72.8755 -44.4279 -44.3556 -44.2922 -44.2852 -44.2508 -44.2437
   -21.1204 -20.9273 -20.7234 -20.1655 -19.8103 -19.4761 -19.3307 -19.1747
   -19.0222 -18.7868 -18.6367 -18.5562 -18.1430 -18.1134 -17.9246 -17.7296
   -12.3527 -12.1209 -12.0481 -11.9174 -11.7009 -11.6477 -11.5609 -10.9486
   -10.8938 -10.6278 -10.5317  -9.8641  -9.7000  -9.3432  -9.1164  -8.6650
    -8.6305  -8.5572  -8.4079  -8.3994  -8.1652  -8.1077  -8.0851  -8.0418
    -7.6907  -7.6303  -7.4996  -7.4813  -7.3569  -7.1786  -7.0747  -6.8653
    -6.6291  -6.4092  -6.2031  -6.1632  -5.9609  -5.9345  -5.7891  -5.7555
    -5.4589  -5.4063  -5.1908  -5.0609  -4.4307  -4.3838  -4.0902  -3.7727
    -2.8393  -2.0233  -2.0045  -1.8220  -1.6513  -1.5598  -1.5006  -1.4943
    -1.3927  -1.3735  -1.3013  -0.8806   0.7125   1.0142   1.1268   1.2047
     1.2580   1.2905   1.5217   1.7507   1.8403   1.9275

          k =-0.3333-0.3849 0.0000 ( 59291 PWs)   bands (ev):

   -72.8826 -72.8755 -44.4279 -44.3555 -44.2922 -44.2852 -44.2508 -44.2437
   -21.1217 -20.9238 -20.7258 -20.1650 -19.8135 -19.4730 -19.3238 -19.1800
   -19.0260 -18.7839 -18.6385 -18.5557 -18.1463 -18.1092 -17.9249 -17.7299
   -12.3542 -12.1175 -12.0514 -11.9152 -11.6880 -11.6626 -11.5599 -10.9485
   -10.8936 -10.6270 -10.5323  -9.8648  -9.7001  -9.3427  -9.1179  -8.6692
    -8.6285  -8.5592  -8.3971  -8.3938  -8.1670  -8.1162  -8.0689  -8.0596
    -7.6910  -7.6284  -7.5078  -7.4737  -7.3548  -7.1786  -7.0757  -6.8767
    -6.6264  -6.3970  -6.1847  -6.1662  -5.9775  -5.9331  -5.7894  -5.7656
    -5.4586  -5.3986  -5.1922  -5.0626  -4.4341  -4.3791  -4.0899  -3.7733
    -2.8437  -2.0238  -2.0059  -1.8216  -1.6501  -1.5601  -1.5007  -1.4938
    -1.3916  -1.3711  -1.2995  -0.8431   0.6641   0.9727   1.0880   1.1870
     1.2167   1.3496   1.4137   1.8186   1.8849   1.9179

          k = 0.5000 0.0962 0.0000 ( 59291 PWs)   bands (ev):

   -72.8826 -72.8755 -44.4279 -44.3556 -44.2922 -44.2852 -44.2508 -44.2437
   -21.1204 -20.9273 -20.7234 -20.1655 -19.8103 -19.4761 -19.3307 -19.1747
   -19.0222 -18.7868 -18.6367 -18.5562 -18.1430 -18.1134 -17.9246 -17.7296
   -12.3527 -12.1209 -12.0481 -11.9174 -11.7009 -11.6477 -11.5609 -10.9486
   -10.8938 -10.6278 -10.5317  -9.8641  -9.7000  -9.3432  -9.1164  -8.6650
    -8.6305  -8.5572  -8.4079  -8.3994  -8.1652  -8.1077  -8.0851  -8.0417
    -7.6907  -7.6302  -7.4996  -7.4814  -7.3569  -7.1787  -7.0747  -6.8653
    -6.6290  -6.4092  -6.2031  -6.1631  -5.9609  -5.9345  -5.7892  -5.7555
    -5.4590  -5.4064  -5.1908  -5.0609  -4.4307  -4.3838  -4.0902  -3.7727
    -2.8393  -2.0233  -2.0045  -1.8220  -1.6513  -1.5598  -1.5006  -1.4943
    -1.3927  -1.3735  -1.3013  -0.8806   0.7125   1.0142   1.1269   1.2047
     1.2580   1.2905   1.5217   1.7506   1.8404   1.9274

          k =-0.3333 0.3849 0.0000 ( 59291 PWs)   bands (ev):

   -72.8826 -72.8755 -44.4279 -44.3555 -44.2922 -44.2852 -44.2508 -44.2437
   -21.1217 -20.9238 -20.7258 -20.1650 -19.8135 -19.4730 -19.3238 -19.1800
   -19.0260 -18.7839 -18.6385 -18.5557 -18.1463 -18.1092 -17.9249 -17.7299
   -12.3542 -12.1175 -12.0514 -11.9152 -11.6880 -11.6627 -11.5599 -10.9485
   -10.8936 -10.6270 -10.5323  -9.8648  -9.7001  -9.3427  -9.1179  -8.6692
    -8.6286  -8.5592  -8.3972  -8.3938  -8.1670  -8.1162  -8.0689  -8.0596
    -7.6909  -7.6284  -7.5078  -7.4737  -7.3548  -7.1786  -7.0757  -6.8767
    -6.6264  -6.3969  -6.1847  -6.1663  -5.9775  -5.9332  -5.7894  -5.7656
    -5.4585  -5.3986  -5.1922  -5.0626  -4.4342  -4.3791  -4.0899  -3.7732
    -2.8437  -2.0238  -2.0059  -1.8216  -1.6501  -1.5601  -1.5007  -1.4938
    -1.3916  -1.3711  -1.2995  -0.8431   0.6641   0.9727   1.0880   1.1870
     1.2167   1.3496   1.4137   1.8186   1.8849   1.9179

          k =-0.1667-0.0962 0.0000 ( 59226 PWs)   bands (ev):

   -72.8826 -72.8755 -44.4279 -44.3555 -44.2922 -44.2851 -44.2508 -44.2437
   -21.3200 -20.5433 -20.3547 -20.3415 -19.9990 -19.9840 -19.8111 -18.7409
   -18.7254 -18.3829 -18.3756 -18.3601 -18.2725 -18.2702 -18.0850 -18.0745
   -12.5120 -12.5102 -12.4140 -11.5894 -11.5804 -11.4305 -11.4288 -10.9330
   -10.9288  -9.9371  -9.9309  -9.6821  -9.3816  -9.3783  -9.2366  -9.2332
    -9.0484  -9.0463  -8.9313  -8.3312  -8.3262  -7.9084  -7.9057  -7.8903
    -7.8512  -7.7765  -7.6196  -7.5831  -7.1488  -7.0930  -6.9660  -6.8954
    -6.8903  -6.8555  -6.5390  -6.5328  -6.2638  -5.3691  -5.3168  -5.1494
    -5.0717  -4.8236  -4.8069  -4.7526  -4.6197  -4.6108  -4.3607  -4.3325
    -2.8582  -2.0238  -2.0086  -1.8276  -1.6534  -1.5609  -1.4970  -1.4887
    -1.3893  -1.3666  -1.2954  -0.7507   0.7333   0.8079   1.0533   1.2055
     1.2910   1.3402   1.5696   1.5850   1.7204   1.9022

          k =-0.0000-0.1925 0.0000 ( 59226 PWs)   bands (ev):

   -72.8826 -72.8755 -44.4279 -44.3555 -44.2922 -44.2851 -44.2508 -44.2437
   -21.3202 -20.5370 -20.3596 -20.3479 -19.9921 -19.9814 -19.8155 -18.7360
   -18.7252 -18.4155 -18.3685 -18.3579 -18.2597 -18.2583 -18.0878 -18.0782
   -12.5202 -12.5022 -12.4138 -11.5896 -11.5815 -11.4380 -11.4180 -10.9338
   -10.9303  -9.9347  -9.9335  -9.6819  -9.3867  -9.3717  -9.2364  -9.2357
    -9.0480  -9.0461  -8.9319  -8.3295  -8.3272  -7.9088  -7.9025  -7.8702
    -7.8508  -7.7788  -7.6398  -7.6015  -7.1180  -7.0936  -6.9642  -6.8960
    -6.8916  -6.8682  -6.5380  -6.5332  -6.2644  -5.3512  -5.3237  -5.1499
    -5.0712  -4.8806  -4.7833  -4.7590  -4.6022  -4.5877  -4.3606  -4.3442
    -2.8624  -2.0242  -2.0100  -1.8272  -1.6523  -1.5612  -1.4977  -1.4880
    -1.3881  -1.3642  -1.2940  -0.7006   0.6392   0.7570   1.0368   1.1755
     1.2445   1.4033   1.5496   1.6095   1.6846   1.9888

          k = 0.5000-0.8660 0.0000 ( 59292 PWs)   bands (ev):

   -72.8826 -72.8755 -44.4279 -44.3556 -44.2922 -44.2852 -44.2508 -44.2437
   -21.0564 -21.0537 -20.4793 -20.4664 -19.4366 -19.4308 -19.4164 -19.4134
   -18.9982 -18.9955 -18.3286 -18.3249 -18.3244 -18.3235 -17.8029 -17.7912
   -12.0741 -12.0713 -12.0703 -12.0697 -11.8868 -11.8766 -11.3351 -11.3333
   -10.2439 -10.2356 -10.1421 -10.1406 -10.1326 -10.1317  -8.6000  -8.5560
    -8.5516  -8.5513  -8.5500  -8.5466  -7.8728  -7.8717  -7.8633  -7.8621
    -7.8312  -7.8235  -7.7931  -7.7544  -7.4950  -7.4937  -6.6207  -6.6114
    -6.3757  -6.3463  -6.3040  -6.2961  -6.1956  -6.1936  -5.7206  -5.7003
    -5.5506  -5.5496  -4.7353  -4.7302  -4.7026  -4.6938  -3.9002  -3.8674
    -2.8393  -2.0233  -2.0045  -1.8220  -1.6506  -1.5598  -1.5006  -1.4943
    -1.3927  -1.3735  -1.3013  -0.8808   0.7299   1.0164   1.1076   1.2129
     1.3203   1.5415   1.5805   1.6217   1.7248   1.7455

          k =-1.0000 0.0000 0.0000 ( 59292 PWs)   bands (ev):

   -72.8826 -72.8755 -44.4279 -44.3556 -44.2922 -44.2852 -44.2508 -44.2437
   -21.0847 -21.0218 -20.4817 -20.4701 -19.4378 -19.4330 -19.4176 -19.4010
   -19.0228 -18.9723 -18.3967 -18.3170 -18.3083 -18.2810 -17.8029 -17.7936
   -12.1233 -12.0729 -12.0508 -12.0342 -11.8868 -11.8767 -11.3583 -11.3121
   -10.2496 -10.2480 -10.1369 -10.1368 -10.1291 -10.1290  -8.6435  -8.5908
    -8.5564  -8.5352  -8.5186  -8.4928  -7.8848  -7.8753  -7.8675  -7.8654
    -7.8201  -7.8174  -7.7967  -7.7675  -7.5234  -7.4680  -6.6174  -6.6114
    -6.3701  -6.3475  -6.3054  -6.2761  -6.2179  -6.1751  -5.7505  -5.6758
    -5.5756  -5.5247  -4.8497  -4.6991  -4.6785  -4.6400  -3.8931  -3.8782
    -2.8566  -2.0252  -2.0080  -1.8206  -1.6488  -1.5606  -1.5017  -1.4915
    -1.3883  -1.3643  -1.2949  -0.7082   0.5220   0.7444   1.0891   1.1087
     1.1615   1.5183   1.5770   1.6193   1.6328   1.9275

 ------ SPIN DOWN ----------


          k = 0.1667 0.2887 0.0000 ( 59267 PWs)   bands (ev):

   -68.6834 -68.6752 -40.3538 -40.2677 -40.1211 -40.1126 -40.0421 -40.0336
   -21.2499 -20.6628 -20.6593 -20.1057 -20.1009 -19.5887 -19.5868 -19.1020
   -18.7003 -18.6946 -18.4579 -18.4549 -18.1972 -18.0871 -18.0801 -17.8518
   -12.4883 -12.2088 -12.2068 -11.8243 -11.8218 -11.6626 -11.1951 -11.1932
   -10.3952 -10.3717 -10.1201 -10.1191  -9.5928  -9.5921  -8.8296  -8.8274
    -8.8240  -8.7694  -8.7662  -8.6001  -8.2008  -8.0380  -8.0100  -7.8334
    -7.8310  -7.4416  -7.4404  -7.2686  -7.2539  -7.2119  -7.2105  -6.9625
    -6.9608  -6.5539  -6.5336  -6.1576  -6.1566  -5.8624  -5.4218  -5.2852
    -5.2669  -5.2037  -4.9031  -4.8954  -4.4975  -4.3476  -4.3349  -3.9721
    -1.4390   0.3835   0.8249   0.9733   1.1230   1.1798   1.2897   1.3634
     1.3993   1.4661   1.5459   1.6174   1.6362   1.7332   1.8867   2.0319
     2.0536   2.0599   2.1410   2.1665   2.3013   2.3375

          k = 0.1667-0.4811 0.0000 ( 59291 PWs)   bands (ev):

   -68.6834 -68.6752 -40.3538 -40.2677 -40.1211 -40.1126 -40.0421 -40.0336
   -21.1199 -20.9143 -20.7259 -20.1638 -19.8072 -19.4688 -19.3200 -19.1774
   -19.0165 -18.7807 -18.6462 -18.5455 -18.1519 -18.0904 -17.9243 -17.7261
   -12.3527 -12.1176 -12.0483 -11.9096 -11.6844 -11.6625 -11.5562 -10.9453
   -10.8941 -10.6275 -10.5261  -9.8640  -9.6971  -9.3394  -9.1148  -8.6539
    -8.6270  -8.5567  -8.3924  -8.3605  -8.1653  -8.1129  -8.0669  -8.0539
    -7.6933  -7.6271  -7.4982  -7.4777  -7.3464  -7.1738  -7.0714  -6.8521
    -6.6254  -6.3797  -6.1696  -6.1616  -5.9640  -5.9324  -5.7874  -5.7359
    -5.4548  -5.3882  -5.2000  -5.0359  -4.4343  -4.3428  -4.0820  -3.7605
    -1.4296   0.3734   0.8235   0.9333   1.0231   1.1413   1.2397   1.2670
     1.3749   1.4199   1.5595   1.7296   1.7741   1.8892   1.9269   2.0524
     2.1081   2.1268   2.1618   2.2037   2.3107   2.3399

          k = 0.1667-0.0962 0.0000 ( 59226 PWs)   bands (ev):

   -68.6834 -68.6752 -40.3538 -40.2677 -40.1211 -40.1126 -40.0421 -40.0335
   -21.3163 -20.5391 -20.3509 -20.3385 -19.9943 -19.9808 -19.8080 -18.7356
   -18.7219 -18.3778 -18.3717 -18.3569 -18.2684 -18.2661 -18.0813 -18.0713
   -12.5097 -12.5079 -12.4118 -11.5869 -11.5787 -11.4281 -11.4264 -10.9304
   -10.9266  -9.9343  -9.9288  -9.6793  -9.3791  -9.3760  -9.2336  -9.2307
    -9.0460  -9.0441  -8.9128  -8.3280  -8.3235  -7.9055  -7.9034  -7.8679
    -7.8478  -7.7742  -7.6030  -7.5734  -7.1234  -7.0830  -6.9634  -6.8927
    -6.8884  -6.8455  -6.5363  -6.5307  -6.2613  -5.3429  -5.3060  -5.1467
    -5.0689  -4.8013  -4.7907  -4.7430  -4.6060  -4.5993  -4.3462  -4.3233
    -1.4482   0.3962   0.8245   0.9757   1.0804   1.1587   1.2066   1.3154
     1.5038   1.5290   1.5999   1.6657   1.7887   1.8238   1.8718   1.9332
     2.0224   2.0704   2.1107   2.1375   2.2554   2.3412

          k =-0.5000-0.8660 0.0000 ( 59292 PWs)   bands (ev):

   -68.6834 -68.6752 -40.3538 -40.2677 -40.1211 -40.1126 -40.0420 -40.0336
   -21.0519 -21.0506 -20.4754 -20.4634 -19.4312 -19.4261 -19.4135 -19.4103
   -18.9938 -18.9925 -18.3230 -18.3221 -18.3214 -18.3188 -17.7986 -17.7877
   -12.0709 -12.0692 -12.0686 -12.0673 -11.8843 -11.8752 -11.3324 -11.3312
   -10.2408 -10.2337 -10.1390 -10.1378 -10.1303 -10.1295  -8.5716  -8.5511
    -8.5498  -8.5491  -8.5473  -8.5389  -7.8697  -7.8689  -7.8613  -7.8602
    -7.8279  -7.8204  -7.7752  -7.7444  -7.4934  -7.4907  -6.6175  -6.6094
    -6.3437  -6.3259  -6.2954  -6.2877  -6.1930  -6.1908  -5.7017  -5.6921
    -5.5480  -5.5468  -4.7130  -4.7069  -4.6946  -4.6894  -3.8833  -3.8580
    -1.4054   0.1295   0.8369   1.0113   1.0643   1.1790   1.2564   1.3984
     1.5032   1.5554   1.5737   1.7180   1.7626   1.8739   1.9118   1.9441
     1.9615   2.0967   2.1682   2.1830   2.3208   2.3474

          k =-0.1667 0.2887 0.0000 ( 59267 PWs)   bands (ev):

   -68.6834 -68.6752 -40.3538 -40.2677 -40.1211 -40.1126 -40.0421 -40.0336
   -21.2499 -20.6628 -20.6593 -20.1057 -20.1009 -19.5888 -19.5867 -19.1020
   -18.7003 -18.6946 -18.4579 -18.4549 -18.1971 -18.0872 -18.0801 -17.8518
   -12.4883 -12.2088 -12.2068 -11.8243 -11.8219 -11.6627 -11.1951 -11.1932
   -10.3952 -10.3717 -10.1202 -10.1191  -9.5928  -9.5921  -8.8295  -8.8273
    -8.8240  -8.7695  -8.7662  -8.6001  -8.2009  -8.0380  -8.0100  -7.8334
    -7.8310  -7.4416  -7.4404  -7.2687  -7.2539  -7.2119  -7.2105  -6.9626
    -6.9609  -6.5538  -6.5336  -6.1576  -6.1566  -5.8624  -5.4219  -5.2852
    -5.2669  -5.2036  -4.9031  -4.8954  -4.4975  -4.3476  -4.3349  -3.9721
    -1.4390   0.3835   0.8249   0.9734   1.1230   1.1798   1.2897   1.3634
     1.3993   1.4661   1.5459   1.6174   1.6362   1.7332   1.8867   2.0319
     2.0536   2.0599   2.1410   2.1664   2.3013   2.3374

          k = 0.3333 0.0000 0.0000 ( 59267 PWs)   bands (ev):

   -68.6834 -68.6752 -40.3538 -40.2677 -40.1211 -40.1126 -40.0421 -40.0336
   -21.2494 -20.6905 -20.6314 -20.1148 -20.0898 -19.6182 -19.5597 -19.1046
   -18.7178 -18.6708 -18.4701 -18.4444 -18.1926 -18.1124 -18.0626 -17.8507
   -12.4871 -12.2168 -12.1995 -11.8351 -11.8140 -11.6604 -11.2145 -11.1739
   -10.3950 -10.3707 -10.1354 -10.1049  -9.5993  -9.5839  -8.8346  -8.8279
    -8.8151  -8.7944  -8.7433  -8.6014  -8.2031  -8.0845  -7.9631  -7.8339
    -7.8281  -7.4478  -7.4335  -7.2859  -7.2316  -7.2223  -7.1996  -6.9730
    -6.9521  -6.6035  -6.4906  -6.1608  -6.1525  -5.8686  -5.4216  -5.3028
    -5.2383  -5.2041  -4.9249  -4.8756  -4.4906  -4.3804  -4.3142  -3.9706
    -1.4234   0.2103   0.8792   0.9695   1.1250   1.1628   1.2535   1.4345
     1.4674   1.4958   1.5560   1.7099   1.7586   1.8588   1.8964   1.9163
     2.0154   2.0614   2.1413   2.2131   2.3011   2.3390

          k =-0.1667-0.4811 0.0000 ( 59291 PWs)   bands (ev):

   -68.6834 -68.6752 -40.3538 -40.2677 -40.1211 -40.1126 -40.0421 -40.0336
   -21.1199 -20.9143 -20.7259 -20.1638 -19.8072 -19.4687 -19.3200 -19.1774
   -19.0165 -18.7807 -18.6462 -18.5455 -18.1519 -18.0904 -17.9243 -17.7261
   -12.3527 -12.1176 -12.0483 -11.9096 -11.6844 -11.6625 -11.5562 -10.9453
   -10.8942 -10.6275 -10.5260  -9.8640  -9.6971  -9.3394  -9.1148  -8.6539
    -8.6270  -8.5567  -8.3924  -8.3605  -8.1652  -8.1129  -8.0669  -8.0539
    -7.6933  -7.6272  -7.4981  -7.4777  -7.3464  -7.1737  -7.0714  -6.8521
    -6.6254  -6.3797  -6.1696  -6.1617  -5.9640  -5.9324  -5.7874  -5.7359
    -5.4549  -5.3882  -5.2000  -5.0359  -4.4343  -4.3428  -4.0820  -3.7606
    -1.4296   0.3734   0.8235   0.9333   1.0231   1.1413   1.2396   1.2670
     1.3749   1.4199   1.5595   1.7296   1.7741   1.8892   1.9269   2.0524
     2.1081   2.1268   2.1618   2.2037   2.3105   2.3391

          k = 0.5000-0.0962 0.0000 ( 59291 PWs)   bands (ev):

   -68.6834 -68.6752 -40.3538 -40.2677 -40.1211 -40.1126 -40.0421 -40.0336
   -21.1167 -20.9231 -20.7203 -20.1619 -19.8067 -19.4719 -19.3261 -19.1715
   -19.0182 -18.7828 -18.6331 -18.5523 -18.1390 -18.1088 -17.9210 -17.7255
   -12.3505 -12.1185 -12.0462 -11.9149 -11.6981 -11.6463 -11.5584 -10.9461
   -10.8913 -10.6253 -10.5292  -9.8615  -9.6976  -9.3403  -9.1141  -8.6449
    -8.6277  -8.5545  -8.3982  -8.3856  -8.1630  -8.0970  -8.0816  -8.0405
    -7.6884  -7.6278  -7.4971  -7.4791  -7.3411  -7.1755  -7.0723  -6.8503
    -6.6259  -6.3886  -6.1830  -6.1608  -5.9510  -5.9316  -5.7865  -5.7392
    -5.4563  -5.3913  -5.1761  -5.0481  -4.4135  -4.3710  -4.0781  -3.7597
    -1.4054   0.1313   0.8357   0.9880   1.0436   1.1698   1.2134   1.2667
     1.4088   1.5970   1.6807   1.7837   1.8808   1.9139   1.9583   1.9853
     2.0263   2.0891   2.1973   2.2469   2.2999   2.3529

          k =-0.3333-0.3849 0.0000 ( 59291 PWs)   bands (ev):

   -68.6834 -68.6752 -40.3538 -40.2677 -40.1211 -40.1126 -40.0421 -40.0336
   -21.1178 -20.9200 -20.7225 -20.1614 -19.8095 -19.4692 -19.3200 -19.1761
   -19.0216 -18.7803 -18.6346 -18.5519 -18.1417 -18.1052 -17.9212 -17.7258
   -12.3519 -12.1153 -12.0492 -11.9128 -11.6860 -11.6604 -11.5575 -10.9459
   -10.8912 -10.6246 -10.5297  -9.8620  -9.6977  -9.3400  -9.1154  -8.6479
    -8.6261  -8.5563  -8.3943  -8.3768  -8.1647  -8.1032  -8.0665  -8.0571
    -7.6887  -7.6261  -7.5046  -7.4721  -7.3397  -7.1756  -7.0731  -6.8582
    -6.6235  -6.3811  -6.1692  -6.1630  -5.9622  -5.9304  -5.7868  -5.7471
    -5.4560  -5.3858  -5.1772  -5.0491  -4.4164  -4.3672  -4.0779  -3.7600
    -1.4137   0.1987   0.8224   0.9810   1.0334   1.1719   1.2268   1.2980
     1.3813   1.5081   1.6879   1.7555   1.8495   1.8996   1.9419   2.0217
     2.0618   2.0891   2.1361   2.2073   2.3151   2.3441

          k = 0.5000 0.0962 0.0000 ( 59291 PWs)   bands (ev):

   -68.6834 -68.6752 -40.3538 -40.2677 -40.1211 -40.1126 -40.0421 -40.0336
   -21.1167 -20.9231 -20.7203 -20.1619 -19.8067 -19.4719 -19.3261 -19.1715
   -19.0182 -18.7828 -18.6331 -18.5523 -18.1390 -18.1088 -17.9210 -17.7255
   -12.3505 -12.1185 -12.0462 -11.9149 -11.6981 -11.6463 -11.5584 -10.9460
   -10.8913 -10.6253 -10.5292  -9.8615  -9.6976  -9.3403  -9.1141  -8.6449
    -8.6277  -8.5545  -8.3982  -8.3856  -8.1630  -8.0970  -8.0816  -8.0405
    -7.6885  -7.6278  -7.4972  -7.4792  -7.3411  -7.1756  -7.0722  -6.8503
    -6.6258  -6.3886  -6.1830  -6.1607  -5.9510  -5.9316  -5.7866  -5.7392
    -5.4563  -5.3913  -5.1761  -5.0481  -4.4135  -4.3710  -4.0781  -3.7597
    -1.4054   0.1313   0.8357   0.9880   1.0436   1.1698   1.2134   1.2668
     1.4087   1.5970   1.6807   1.7837   1.8808   1.9139   1.9583   1.9854
     2.0263   2.0891   2.1972   2.2468   2.3000   2.3529

          k =-0.3333 0.3849 0.0000 ( 59291 PWs)   bands (ev):

   -68.6834 -68.6752 -40.3538 -40.2677 -40.1211 -40.1126 -40.0421 -40.0336
   -21.1178 -20.9200 -20.7225 -20.1614 -19.8095 -19.4692 -19.3200 -19.1761
   -19.0216 -18.7803 -18.6346 -18.5519 -18.1417 -18.1052 -17.9212 -17.7258
   -12.3519 -12.1153 -12.0492 -11.9128 -11.6860 -11.6604 -11.5575 -10.9459
   -10.8912 -10.6246 -10.5297  -9.8620  -9.6977  -9.3400  -9.1154  -8.6479
    -8.6261  -8.5562  -8.3944  -8.3768  -8.1647  -8.1032  -8.0665  -8.0571
    -7.6887  -7.6261  -7.5047  -7.4721  -7.3397  -7.1755  -7.0732  -6.8582
    -6.6235  -6.3811  -6.1692  -6.1631  -5.9622  -5.9305  -5.7868  -5.7471
    -5.4559  -5.3857  -5.1773  -5.0491  -4.4165  -4.3672  -4.0779  -3.7600
    -1.4137   0.1986   0.8224   0.9810   1.0334   1.1719   1.2268   1.2980
     1.3813   1.5081   1.6879   1.7555   1.8495   1.8996   1.9420   2.0216
     2.0617   2.0891   2.1361   2.2072   2.3156   2.3439

          k =-0.1667-0.0962 0.0000 ( 59226 PWs)   bands (ev):

   -68.6834 -68.6752 -40.3538 -40.2677 -40.1211 -40.1126 -40.0421 -40.0335
   -21.3163 -20.5390 -20.3509 -20.3385 -19.9943 -19.9808 -19.8079 -18.7356
   -18.7219 -18.3778 -18.3717 -18.3569 -18.2684 -18.2661 -18.0813 -18.0713
   -12.5097 -12.5079 -12.4118 -11.5868 -11.5786 -11.4281 -11.4264 -10.9304
   -10.9266  -9.9344  -9.9289  -9.6793  -9.3791  -9.3760  -9.2337  -9.2307
    -9.0460  -9.0441  -8.9128  -8.3280  -8.3235  -7.9055  -7.9033  -7.8679
    -7.8477  -7.7743  -7.6030  -7.5734  -7.1234  -7.0830  -6.9634  -6.8927
    -6.8883  -6.8455  -6.5363  -6.5306  -6.2614  -5.3429  -5.3060  -5.1466
    -5.0690  -4.8013  -4.7907  -4.7430  -4.6060  -4.5993  -4.3462  -4.3233
    -1.4482   0.3962   0.8245   0.9757   1.0804   1.1587   1.2066   1.3154
     1.5039   1.5289   1.5999   1.6657   1.7887   1.8238   1.8718   1.9332
     2.0223   2.0704   2.1108   2.1373   2.2554   2.3409

          k =-0.0000-0.1925 0.0000 ( 59226 PWs)   bands (ev):

   -68.6834 -68.6752 -40.3538 -40.2677 -40.1211 -40.1126 -40.0421 -40.0336
   -21.3164 -20.5334 -20.3552 -20.3444 -19.9883 -19.9784 -19.8119 -18.7314
   -18.7217 -18.4080 -18.3644 -18.3546 -18.2579 -18.2548 -18.0836 -18.0746
   -12.5175 -12.5004 -12.4115 -11.5871 -11.5795 -11.4354 -11.4162 -10.9311
   -10.9279  -9.9323  -9.9311  -9.6792  -9.3838  -9.3698  -9.2337  -9.2327
    -9.0457  -9.0439  -8.9132  -8.3267  -8.3242  -7.9063  -7.9003  -7.8558
    -7.8448  -7.7763  -7.6158  -7.5886  -7.1022  -7.0821  -6.9618  -6.8934
    -6.8893  -6.8551  -6.5354  -6.5309  -6.2618  -5.3306  -5.3101  -5.1470
    -5.0685  -4.8482  -4.7721  -4.7448  -4.5954  -4.5794  -4.3464  -4.3315
    -1.4555   0.5355   0.7775   0.9657   1.0848   1.1427   1.2380   1.2571
     1.4751   1.4770   1.5374   1.6054   1.7232   1.8189   1.9101   2.0053
     2.0615   2.0632   2.1368   2.1546   2.1873   2.3269

          k = 0.5000-0.8660 0.0000 ( 59292 PWs)   bands (ev):

   -68.6834 -68.6752 -40.3538 -40.2677 -40.1211 -40.1126 -40.0420 -40.0336
   -21.0519 -21.0505 -20.4754 -20.4634 -19.4312 -19.4261 -19.4135 -19.4103
   -18.9939 -18.9924 -18.3230 -18.3222 -18.3214 -18.3187 -17.7985 -17.7877
   -12.0710 -12.0692 -12.0687 -12.0672 -11.8843 -11.8751 -11.3324 -11.3312
   -10.2408 -10.2337 -10.1390 -10.1379 -10.1303 -10.1295  -8.5716  -8.5511
    -8.5499  -8.5491  -8.5471  -8.5389  -7.8697  -7.8689  -7.8613  -7.8601
    -7.8279  -7.8204  -7.7752  -7.7444  -7.4935  -7.4907  -6.6174  -6.6093
    -6.3437  -6.3259  -6.2954  -6.2877  -6.1930  -6.1906  -5.7017  -5.6921
    -5.5481  -5.5468  -4.7130  -4.7068  -4.6946  -4.6894  -3.8833  -3.8580
    -1.4054   0.1295   0.8369   1.0113   1.0643   1.1790   1.2564   1.3984
     1.5032   1.5553   1.5737   1.7181   1.7626   1.8739   1.9118   1.9440
     1.9615   2.0968   2.1681   2.1830   2.3206   2.3476

          k =-1.0000 0.0000 0.0000 ( 59292 PWs)   bands (ev):

   -68.6834 -68.6752 -40.3539 -40.2677 -40.1211 -40.1126 -40.0421 -40.0335
   -21.0793 -21.0199 -20.4774 -20.4667 -19.4334 -19.4288 -19.4137 -19.3985
   -19.0171 -18.9704 -18.3880 -18.3132 -18.3050 -18.2804 -17.7984 -17.7898
   -12.1189 -12.0706 -12.0493 -12.0335 -11.8846 -11.8749 -11.3548 -11.3106
   -10.2465 -10.2447 -10.1343 -10.1343 -10.1272 -10.1267  -8.6130  -8.5863
    -8.5538  -8.5337  -8.5178  -8.4891  -7.8810  -7.8721  -7.8650  -7.8631
    -7.8154  -7.8144  -7.7785  -7.7549  -7.5197  -7.4669  -6.6147  -6.6092
    -6.3443  -6.3277  -6.2944  -6.2700  -6.2138  -6.1731  -5.7304  -5.6672
    -5.5714  -5.5235  -4.8114  -4.6871  -4.6707  -4.6386  -3.8787  -3.8651
    -1.4373   0.5003   0.8370   0.9316   1.0214   1.1151   1.2365   1.2682
     1.3624   1.4753   1.6059   1.6393   1.6686   1.7752   1.8673   1.9319
     2.0795   2.1008   2.1691   2.1714   2.3300   2.3582

     the Fermi energy is    -1.1687 ev

!    total energy              =   -1133.82775374 Ry

     total all-electron energy =     -6753.503457 Ry
     estimated scf accuracy    <       0.00000009 Ry
     smearing contrib. (-TS)   =      -0.00000000 Ry
     internal energy E=F+TS    =   -1133.82775374 Ry

     The total energy is F=E-TS. E is the sum of the following terms:
     one-electron contribution =   -3951.67260636 Ry
     hartree contribution      =    2003.99618679 Ry
     xc contribution           =    -186.01642517 Ry
     ewald contribution        =    1359.24204485 Ry
     DFT-D3 Dispersion         =      -0.13451811 Ry
     one-center paw contrib.   =    -359.24243574 Ry

     total magnetization       =    10.00 Bohr mag/cell
     absolute magnetization    =    10.01 Bohr mag/cell

     convergence has been achieved in  14 iterations

     Writing output data file ./mytmp/Crdimer0.143-0.1.save/
 
     init_run     :     18.51s CPU     19.65s WALL (       1 calls)
     electrons    :    516.97s CPU    560.03s WALL (       1 calls)

     Called by init_run:
     wfcinit      :     13.53s CPU     14.11s WALL (       1 calls)
     potinit      :      1.50s CPU      1.59s WALL (       1 calls)
     hinit0       :      1.52s CPU      1.60s WALL (       1 calls)

     Called by electrons:
     c_bands      :    402.51s CPU    426.62s WALL (      14 calls)
     sum_band     :     80.88s CPU     92.22s WALL (      14 calls)
     v_of_rho     :      7.42s CPU      8.26s WALL (      15 calls)
     newd         :     18.32s CPU     25.15s WALL (      15 calls)
     PAW_pot      :      7.37s CPU      7.48s WALL (      15 calls)
     mix_rho      :      0.98s CPU      1.07s WALL (      14 calls)

     Called by c_bands:
     init_us_2    :      4.99s CPU      5.03s WALL (     870 calls)
     cegterg      :    390.13s CPU    414.17s WALL (     420 calls)

     Called by *egterg:
     cdiaghg      :     23.87s CPU     37.53s WALL (    2643 calls)
     h_psi        :    238.43s CPU    247.45s WALL (    2673 calls)
     s_psi        :     26.52s CPU     26.59s WALL (    2673 calls)
     g_psi        :      0.64s CPU      0.65s WALL (    2223 calls)

     Called by h_psi:
     h_psi:calbec :     28.57s CPU     29.08s WALL (    2673 calls)
     vloc_psi     :    180.55s CPU    188.91s WALL (    2673 calls)
     add_vuspsi   :     27.08s CPU     27.20s WALL (    2673 calls)

     General routines
     calbec       :     38.26s CPU     38.95s WALL (    3093 calls)
     fft          :      9.36s CPU     13.83s WALL (     369 calls)
     ffts         :      0.11s CPU      0.13s WALL (      58 calls)
     fftw         :    186.85s CPU    195.56s WALL (  245650 calls)
     interpolate  :      0.41s CPU      0.44s WALL (      30 calls)
 
     Parallel routines
     fft_scatt_xy :     29.90s CPU     31.05s WALL (  246077 calls)
     fft_scatt_yz :     78.28s CPU     86.84s WALL (  246077 calls)
 
     PWSCF        :   8m57.48s CPU   9m44.35s WALL

 
   This run was terminated on:  15: 0:38   2Apr2021            

=------------------------------------------------------------------------------=
   JOB DONE.
=------------------------------------------------------------------------------=
