
     Program PWSCF v.6.7MaX starts on  2Apr2021 at 13:40:10 

     This program is part of the open-source Quantum ESPRESSO suite
     for quantum simulation of materials; please cite
         "P. Giannozzi et al., J. Phys.:Condens. Matter 21 395502 (2009);
         "P. Giannozzi et al., J. Phys.:Condens. Matter 29 465901 (2017);
          URL http://www.quantum-espresso.org", 
     in publications or presentations arising from this work. More details at
     http://www.quantum-espresso.org/quote

     Parallel version (MPI), running on    48 processors

     MPI processes distributed on     1 nodes
     R & G space division:  proc/nbgrp/npool/nimage =      48
     Reading input from Crdimer0.1425-0.0.scf.in

     Current dimensions of program PWSCF are:
     Max number of different atomic species (ntypx) = 10
     Max number of k-points (npk) =  40000
     Max angular momentum in pseudopotentials (lmaxx) =  3
     file N.pbe-n-kjpaw_psl.1.0.0.UPF: wavefunction(s)  2S renormalized
     file Cr.pbe-spn-kjpaw_psl.1.0.0.UPF: wavefunction(s)  3S 3P 3D renormalized
     file Cr.pbe-spn-kjpaw_psl.1.0.0.UPF: wavefunction(s)  3S 3P 3D renormalized

     --------------------------------------------
     Parameters for DFT-D3 Dispersion Correction:
     --------------------------------------------
       Reference C6 values for interpolation: 

         atom   Coordination number   C6
         B          0.000           214.36
         B          0.971           150.74
         B          1.944           106.23
         B          2.913            62.89
         B          4.586            56.06
         N          0.000            50.54
         N          0.994            44.25
         N          2.014            39.35
         N          2.990            31.16
         Cr1        0.000          1381.48
         Cr1        1.827           571.38
         Cr1       10.619           306.69
         Cr2        0.000          1381.48
         Cr2        1.827           571.38
         Cr2       10.619           306.69

       Values used:

         atom   Coordination number  R0_AB[au]  C6      C8
         B          3.336            3.039     62.89   2505.99
         B          3.336            3.039     62.89   2505.99
         B          3.365            3.039     62.87   2505.21
         B          3.336            3.039     62.89   2505.99
         B          3.340            3.039     62.89   2505.89
         B          3.340            3.039     62.89   2505.89
         N          3.134            2.478     31.22    688.70
         N          3.134            2.478     31.22    688.70
         N          3.158            2.478     31.21    688.49
         N          3.136            2.478     31.22    688.68
         N          3.135            2.478     31.22    688.69
         N          3.134            2.478     31.22    688.69
         N          3.135            2.478     31.22    688.69
         N          3.134            2.478     31.22    688.69
         N          3.142            2.478     31.21    688.62
         B          3.335            3.039     62.89   2506.01
         B          3.336            3.039     62.89   2505.99
         B          3.340            3.039     62.89   2505.89
         B          3.340            3.039     62.89   2505.89
         B          3.336            3.039     62.89   2505.99
         B          3.335            3.039     62.89   2506.01
         N          3.135            2.478     31.22    688.69
         B          3.335            3.039     62.89   2506.01
         B          3.335            3.039     62.89   2506.01
         B          3.359            3.039     62.88   2505.37
         N          3.134            2.478     31.22    688.69
         N          3.134            2.478     31.22    688.70
         N          3.140            2.478     31.22    688.64
         N          3.140            2.478     31.22    688.64
         N          3.158            2.478     31.21    688.49
         N          3.136            2.478     31.22    688.68
         B          3.359            3.039     62.88   2505.37
         Cr1        0.704            3.252   1335.23 123226.17
         Cr2        0.704            3.252   1335.23 123226.17

         Molecular C6 ( Ry / a.u.^6 ) =     78634.05


     Subspace diagonalization in iterative solution of the eigenvalue problem:
     one sub-group per band group will be used
     scalapack distributed-memory algorithm (size of sub-group:  6*  6 procs)

 
     Parallelization info
     --------------------
     sticks:   dense  smooth     PW     G-vecs:    dense   smooth      PW
     Min         235      98     26                36277     9874    1408
     Max         236      99     27                36282     9883    1425
     Sum       11311    4741   1285              1741401   474235   68095
 


     bravais-lattice index     =            4
     lattice parameter (alat)  =      18.9275  a.u.
     unit-cell volume          =   10553.3021 (a.u.)^3
     number of atoms/cell      =           34
     number of atomic types    =            4
     number of electrons       =       156.00
     number of Kohn-Sham states=           94
     kinetic-energy cutoff     =      48.0000  Ry
     charge density cutoff     =     457.0000  Ry
     scf convergence threshold =      1.0E-07
     mixing beta               =       0.5000
     number of iterations used =            8  plain     mixing
     Exchange-correlation= SLA  PW   PBX  PBC
                           (   1   4   3   4   0   0   0)

     celldm(1)=  18.927497  celldm(2)=   0.000000  celldm(3)=   1.797125
     celldm(4)=   0.000000  celldm(5)=   0.000000  celldm(6)=   0.000000

     crystal axes: (cart. coord. in units of alat)
               a(1) = (   1.000000   0.000000   0.000000 )  
               a(2) = (  -0.500000   0.866025   0.000000 )  
               a(3) = (   0.000000   0.000000   1.797125 )  

     reciprocal axes: (cart. coord. in units 2 pi/alat)
               b(1) = (  1.000000  0.577350  0.000000 )  
               b(2) = (  0.000000  1.154701  0.000000 )  
               b(3) = (  0.000000  0.000000  0.556444 )  


     PseudoPot. # 1 for B  read from file:
     /home/sf05/q-e-qe-6.7MaX-Release/pseudo/B.pbe-n-kjpaw_psl.1.0.0.UPF
     MD5 check sum: d9c678ba5d3b2fd7b74e61139c9288d8
     Pseudo is Projector augmented-wave + core cor, Zval =  3.0
     Generated using "atomic" code by A. Dal Corso  v.5.1.2
     Shape of augmentation charge: PSQ
     Using radial grid of 1059 points,  4 beta functions with: 
                l(1) =   0
                l(2) =   0
                l(3) =   1
                l(4) =   1
     Q(r) pseudized with 0 coefficients 


     PseudoPot. # 2 for N  read from file:
     /home/sf05/q-e-qe-6.7MaX-Release/pseudo/N.pbe-n-kjpaw_psl.1.0.0.UPF
     MD5 check sum: e0e4e94a9c4025c5b51bd7d8793849bd
     Pseudo is Projector augmented-wave + core cor, Zval =  5.0
     Generated using "atomic" code by A. Dal Corso  v.5.1.2
     Shape of augmentation charge: PSQ
     Using radial grid of 1085 points,  4 beta functions with: 
                l(1) =   0
                l(2) =   0
                l(3) =   1
                l(4) =   1
     Q(r) pseudized with 0 coefficients 


     PseudoPot. # 3 for Cr read from file:
     /home/sf05/q-e-qe-6.7MaX-Release/pseudo/Cr.pbe-spn-kjpaw_psl.1.0.0.UPF
     MD5 check sum: 198f1a2427a48552563eee314eba32ba
     Pseudo is Projector augmented-wave + core cor, Zval = 14.0
     Generated using &quot;atomic&quot; code by A. Dal Corso  v.6.3
     Shape of augmentation charge: PSQ
     Using radial grid of 1183 points,  6 beta functions with: 
                l(1) =   0
                l(2) =   0
                l(3) =   1
                l(4) =   1
                l(5) =   2
                l(6) =   2
     Q(r) pseudized with 0 coefficients 


     PseudoPot. # 4 for Cr read from file:
     /home/sf05/q-e-qe-6.7MaX-Release/pseudo/Cr.pbe-spn-kjpaw_psl.1.0.0.UPF
     MD5 check sum: 198f1a2427a48552563eee314eba32ba
     Pseudo is Projector augmented-wave + core cor, Zval = 14.0
     Generated using &quot;atomic&quot; code by A. Dal Corso  v.6.3
     Shape of augmentation charge: PSQ
     Using radial grid of 1183 points,  6 beta functions with: 
                l(1) =   0
                l(2) =   0
                l(3) =   1
                l(4) =   1
                l(5) =   2
                l(6) =   2
     Q(r) pseudized with 0 coefficients 


     atomic species   valence    mass     pseudopotential
        B              3.00    10.81100     B ( 1.00)
        N              5.00    14.00674     N ( 1.00)
        Cr1           14.00    51.99610     Cr( 1.00)
        Cr2           14.00    51.99610     Cr( 1.00)

     Starting magnetic structure 
     atomic species   magnetization
        B            0.000
        N            0.000
        Cr1          1.000
        Cr2          1.000

     No symmetry found



   Cartesian axes

     site n.     atom                  positions (alat units)
         1           B   tau(   1) = (  -0.1250000   0.2165064   0.8985623  )
         2           B   tau(   2) = (   0.3750000   0.6495191   0.8985623  )
         3           B   tau(   3) = (   0.2500000   0.0000000   0.8985623  )
         4           B   tau(   4) = (   0.7500000   0.0000000   0.8985623  )
         5           B   tau(   5) = (   0.1250000   0.2165064   0.8985623  )
         6           B   tau(   6) = (  -0.3750000   0.6495191   0.8985623  )
         7           N   tau(   7) = (   0.7500005   0.2886748   0.8985623  )
         8           N   tau(   8) = (   0.3750005   0.5051812   0.8985623  )
         9           N   tau(   9) = (   0.3750005   0.0721685   0.8985623  )
        10           N   tau(  10) = (   0.6250005   0.0721685   0.8985623  )
        11           N   tau(  11) = (   0.2500005   0.2886748   0.8985623  )
        12           N   tau(  12) = (   0.6250005   0.5051812   0.8985623  )
        13           N   tau(  13) = (   0.0000005   0.2886748   0.8985623  )
        14           N   tau(  14) = (   0.2500005   0.7216875   0.8985623  )
        15           N   tau(  15) = (  -0.2499995   0.7216875   0.8985623  )
        16           B   tau(  16) = (   0.0000000   0.4330127   0.8985623  )
        17           B   tau(  17) = (   0.1250000   0.6495191   0.8985623  )
        18           B   tau(  18) = (  -0.1250000   0.6495191   0.8985623  )
        19           B   tau(  19) = (   0.3750000   0.2165064   0.8985623  )
        20           B   tau(  20) = (   0.6250000   0.2165064   0.8985623  )
        21           B   tau(  21) = (   0.5000000   0.4330127   0.8985623  )
        22           N   tau(  22) = (   0.5000005   0.2886748   0.8985623  )
        23           B   tau(  23) = (  -0.2500000   0.4330127   0.8985623  )
        24           B   tau(  24) = (   0.2500000   0.4330127   0.8985623  )
        25           B   tau(  25) = (   0.5000000   0.0000000   0.8985623  )
        26           N   tau(  26) = (  -0.1249995   0.5051812   0.8985623  )
        27           N   tau(  27) = (   0.1250005   0.5051812   0.8985623  )
        28           N   tau(  28) = (   0.0000005   0.7216875   0.8985623  )
        29           N   tau(  29) = (   0.5000005   0.7216875   0.8985623  )
        30           N   tau(  30) = (   0.1250005   0.0721685   0.8985623  )
        31           N   tau(  31) = (   0.8750005   0.0721685   0.8985623  )
        32           B   tau(  32) = (   0.0000000   0.0000000   0.8985623  )
        33           Cr1 tau(  33) = (   0.3925000   0.0000000   1.2040735  )
        34           Cr2 tau(  34) = (   0.1075000   0.0000000   1.2040735  )

     number of k points=    15  Gaussian smearing, width (Ry)=  0.0000
                       cart. coord. in units 2pi/alat
        k(    1) = (   0.1666667   0.2886751   0.0000000), wk =   0.0740741
        k(    2) = (   0.1666667  -0.4811252   0.0000000), wk =   0.0740741
        k(    3) = (   0.1666667  -0.0962250   0.0000000), wk =   0.0740741
        k(    4) = (  -0.5000000  -0.8660254   0.0000000), wk =   0.0370370
        k(    5) = (  -0.1666667   0.2886751   0.0000000), wk =   0.0740741
        k(    6) = (   0.3333333   0.0000000   0.0000000), wk =   0.0740741
        k(    7) = (  -0.1666667  -0.4811252   0.0000000), wk =   0.0740741
        k(    8) = (   0.5000000  -0.0962250   0.0000000), wk =   0.0740741
        k(    9) = (  -0.3333333  -0.3849002   0.0000000), wk =   0.0740741
        k(   10) = (   0.5000000   0.0962250   0.0000000), wk =   0.0740741
        k(   11) = (  -0.3333333   0.3849002   0.0000000), wk =   0.0740741
        k(   12) = (  -0.1666667  -0.0962250   0.0000000), wk =   0.0740741
        k(   13) = (  -0.0000000  -0.1924501   0.0000000), wk =   0.0740741
        k(   14) = (   0.5000000  -0.8660254   0.0000000), wk =   0.0370370
        k(   15) = (  -1.0000000   0.0000000   0.0000000), wk =   0.0370370

     Dense  grid:  1741401 G-vectors     FFT dimensions: ( 135, 135, 240)

     Smooth grid:   474235 G-vectors     FFT dimensions: (  90,  90, 160)

     Estimated max dynamical RAM per process >     218.62 MB

     Estimated total dynamical RAM >      10.25 GB
     Generating pointlists ...
     new r_m :   0.0595 (alat units)  1.1269 (a.u.) for type    1
     new r_m :   0.0595 (alat units)  1.1269 (a.u.) for type    2
     new r_m :   0.1176 (alat units)  2.2252 (a.u.) for type    3
     new r_m :   0.1176 (alat units)  2.2252 (a.u.) for type    4

     Initial potential from superposition of free atoms

     starting charge  155.99382, renormalised to  156.00000

     negative rho (up, down):  6.712E-03 4.655E-04
     Starting wfcs are  148 randomized atomic wfcs
     Checking if some PAW data can be deallocated... 

     total cpu time spent up to now is       20.4 secs

     Self-consistent Calculation

     iteration #  1     ecut=    48.00 Ry     beta= 0.50
     Davidson diagonalization with overlap
     ethr =  1.00E-02,  avg # of iterations =  2.8

     negative rho (up, down):  4.894E-03 2.911E-03

     total cpu time spent up to now is       61.9 secs

     total energy              =   -1130.73818301 Ry
     estimated scf accuracy    <      11.36577075 Ry

     total magnetization       =    12.00 Bohr mag/cell
     absolute magnetization    =    12.12 Bohr mag/cell

     iteration #  2     ecut=    48.00 Ry     beta= 0.50
     Davidson diagonalization with overlap
     ethr =  7.29E-03,  avg # of iterations =  2.8

     negative rho (up, down):  8.818E-03 8.008E-03

     total cpu time spent up to now is      100.7 secs

     total energy              =   -1132.92143824 Ry
     estimated scf accuracy    <       3.77378980 Ry

     total magnetization       =    10.00 Bohr mag/cell
     absolute magnetization    =    10.07 Bohr mag/cell

     iteration #  3     ecut=    48.00 Ry     beta= 0.50
     Davidson diagonalization with overlap
     ethr =  2.42E-03,  avg # of iterations =  7.1

     negative rho (up, down):  4.072E-03 4.054E-03

     total cpu time spent up to now is      140.3 secs

     total energy              =   -1133.56511523 Ry
     estimated scf accuracy    <       0.84225484 Ry

     total magnetization       =    11.78 Bohr mag/cell
     absolute magnetization    =    11.84 Bohr mag/cell

     iteration #  4     ecut=    48.00 Ry     beta= 0.50
     Davidson diagonalization with overlap
     ethr =  5.40E-04,  avg # of iterations =  6.4

     negative rho (up, down):  6.985E-03 7.632E-03

     total cpu time spent up to now is      177.8 secs

     total energy              =   -1133.78417995 Ry
     estimated scf accuracy    <       0.44834828 Ry

     total magnetization       =    10.00 Bohr mag/cell
     absolute magnetization    =    10.02 Bohr mag/cell

     iteration #  5     ecut=    48.00 Ry     beta= 0.50
     Davidson diagonalization with overlap
     ethr =  2.87E-04,  avg # of iterations =  7.4

     negative rho (up, down):  4.643E-03 4.902E-03

     total cpu time spent up to now is      217.5 secs

     total energy              =   -1133.81643526 Ry
     estimated scf accuracy    <       0.03142298 Ry

     total magnetization       =    10.00 Bohr mag/cell
     absolute magnetization    =    10.02 Bohr mag/cell

     iteration #  6     ecut=    48.00 Ry     beta= 0.50
     Davidson diagonalization with overlap
     ethr =  2.01E-05,  avg # of iterations = 11.3

     negative rho (up, down):  3.825E-03 3.907E-03

     total cpu time spent up to now is      267.3 secs

     total energy              =   -1133.81939671 Ry
     estimated scf accuracy    <       0.04866642 Ry

     total magnetization       =    10.00 Bohr mag/cell
     absolute magnetization    =    10.02 Bohr mag/cell

     iteration #  7     ecut=    48.00 Ry     beta= 0.50
     Davidson diagonalization with overlap
     ethr =  2.01E-05,  avg # of iterations =  6.3

     negative rho (up, down):  3.406E-03 3.871E-03

     total cpu time spent up to now is      307.1 secs

     total energy              =   -1133.82720788 Ry
     estimated scf accuracy    <       0.00226573 Ry

     total magnetization       =    10.00 Bohr mag/cell
     absolute magnetization    =    10.02 Bohr mag/cell

     iteration #  8     ecut=    48.00 Ry     beta= 0.50
     Davidson diagonalization with overlap
     ethr =  1.45E-06,  avg # of iterations =  9.0

     negative rho (up, down):  3.200E-03 3.757E-03

     total cpu time spent up to now is      351.7 secs

     total energy              =   -1133.82792499 Ry
     estimated scf accuracy    <       0.00038903 Ry

     total magnetization       =    10.00 Bohr mag/cell
     absolute magnetization    =    10.01 Bohr mag/cell

     iteration #  9     ecut=    48.00 Ry     beta= 0.50
     Davidson diagonalization with overlap
     ethr =  2.49E-07,  avg # of iterations =  3.6

     negative rho (up, down):  3.149E-03 3.761E-03

     total cpu time spent up to now is      384.9 secs

     total energy              =   -1133.82806624 Ry
     estimated scf accuracy    <       0.00007242 Ry

     total magnetization       =    10.00 Bohr mag/cell
     absolute magnetization    =    10.01 Bohr mag/cell

     iteration # 10     ecut=    48.00 Ry     beta= 0.50
     Davidson diagonalization with overlap
     ethr =  4.64E-08,  avg # of iterations =  4.2

     negative rho (up, down):  3.128E-03 3.771E-03

     total cpu time spent up to now is      426.5 secs

     total energy              =   -1133.82813297 Ry
     estimated scf accuracy    <       0.00001724 Ry

     total magnetization       =    10.00 Bohr mag/cell
     absolute magnetization    =    10.01 Bohr mag/cell

     iteration # 11     ecut=    48.00 Ry     beta= 0.50
     Davidson diagonalization with overlap
     ethr =  1.11E-08,  avg # of iterations =  4.1

     negative rho (up, down):  3.121E-03 3.784E-03

     total cpu time spent up to now is      466.6 secs

     total energy              =   -1133.82815239 Ry
     estimated scf accuracy    <       0.00000467 Ry

     total magnetization       =    10.00 Bohr mag/cell
     absolute magnetization    =    10.01 Bohr mag/cell

     iteration # 12     ecut=    48.00 Ry     beta= 0.50
     Davidson diagonalization with overlap
     ethr =  2.99E-09,  avg # of iterations =  4.6

     negative rho (up, down):  3.116E-03 3.795E-03

     total cpu time spent up to now is      502.2 secs

     total energy              =   -1133.82815906 Ry
     estimated scf accuracy    <       0.00000318 Ry

     total magnetization       =    10.00 Bohr mag/cell
     absolute magnetization    =    10.01 Bohr mag/cell

     iteration # 13     ecut=    48.00 Ry     beta= 0.50
     Davidson diagonalization with overlap
     ethr =  2.04E-09,  avg # of iterations =  4.6

     negative rho (up, down):  3.112E-03 3.799E-03

     total cpu time spent up to now is      536.6 secs

     total energy              =   -1133.82816199 Ry
     estimated scf accuracy    <       0.00000039 Ry

     total magnetization       =    10.00 Bohr mag/cell
     absolute magnetization    =    10.01 Bohr mag/cell

     iteration # 14     ecut=    48.00 Ry     beta= 0.50
     Davidson diagonalization with overlap
     ethr =  2.52E-10,  avg # of iterations =  4.5

     negative rho (up, down):  3.111E-03 3.802E-03

     total cpu time spent up to now is      572.3 secs

     total energy              =   -1133.82816271 Ry
     estimated scf accuracy    <       0.00000017 Ry

     total magnetization       =    10.00 Bohr mag/cell
     absolute magnetization    =    10.01 Bohr mag/cell

     iteration # 15     ecut=    48.00 Ry     beta= 0.50
     Davidson diagonalization with overlap
     ethr =  1.07E-10,  avg # of iterations =  4.7

     negative rho (up, down):  3.111E-03 3.802E-03
 
     Magnetic moment per site:
     atom:    1    charge:    0.8805    magn:    0.0001    constr:    0.0000
     atom:    2    charge:    0.8806    magn:    0.0004    constr:    0.0000
     atom:    3    charge:    0.8792    magn:    0.0001    constr:    0.0000
     atom:    4    charge:    0.8808    magn:    0.0002    constr:    0.0000
     atom:    5    charge:    0.8801    magn:    0.0008    constr:    0.0000
     atom:    6    charge:    0.8800    magn:    0.0001    constr:    0.0000
     atom:    7    charge:    2.8610    magn:    0.0000    constr:    0.0000
     atom:    8    charge:    2.8609    magn:    0.0002    constr:    0.0000
     atom:    9    charge:    2.8610    magn:    0.0064    constr:    0.0000
     atom:   10    charge:    2.8609    magn:    0.0014    constr:    0.0000
     atom:   11    charge:    2.8607    magn:    0.0009    constr:    0.0000
     atom:   12    charge:    2.8609    magn:    0.0003    constr:    0.0000
     atom:   13    charge:    2.8599    magn:    0.0007    constr:    0.0000
     atom:   14    charge:    2.8600    magn:    0.0004    constr:    0.0000
     atom:   15    charge:    2.8594    magn:    0.0046    constr:    0.0000
     atom:   16    charge:    0.8800    magn:    0.0001    constr:    0.0000
     atom:   17    charge:    0.8803    magn:    0.0004    constr:    0.0000
     atom:   18    charge:    0.8797    magn:    0.0001    constr:    0.0000
     atom:   19    charge:    0.8796    magn:    0.0008    constr:    0.0000
     atom:   20    charge:    0.8799    magn:    0.0001    constr:    0.0000
     atom:   21    charge:    0.8797    magn:    0.0001    constr:    0.0000
     atom:   22    charge:    2.8612    magn:    0.0007    constr:    0.0000
     atom:   23    charge:    0.8798    magn:    0.0001    constr:    0.0000
     atom:   24    charge:    0.8799    magn:    0.0001    constr:    0.0000
     atom:   25    charge:    0.8807    magn:   -0.0000    constr:    0.0000
     atom:   26    charge:    2.8597    magn:    0.0003    constr:    0.0000
     atom:   27    charge:    2.8598    magn:    0.0002    constr:    0.0000
     atom:   28    charge:    2.8595    magn:    0.0040    constr:    0.0000
     atom:   29    charge:    2.8593    magn:    0.0040    constr:    0.0000
     atom:   30    charge:    2.8597    magn:    0.0064    constr:    0.0000
     atom:   31    charge:    2.8596    magn:    0.0014    constr:    0.0000
     atom:   32    charge:    0.8809    magn:   -0.0000    constr:    0.0000
     atom:   33    charge:   12.5376    magn:    4.2496    constr:    0.0000
     atom:   34    charge:   12.5375    magn:    4.2495    constr:    0.0000

     total cpu time spent up to now is      607.5 secs

     End of self-consistent calculation

 ------ SPIN UP ------------


          k = 0.1667 0.2887 0.0000 ( 59267 PWs)   bands (ev):

   -72.8816 -72.8742 -44.4319 -44.3569 -44.2813 -44.2740 -44.2552 -44.2478
   -21.2474 -20.6607 -20.6568 -20.1052 -20.0970 -19.5871 -19.5845 -19.1001
   -18.6980 -18.6923 -18.4585 -18.4509 -18.1957 -18.0860 -18.0789 -17.8504
   -12.4846 -12.2078 -12.2016 -11.8216 -11.8185 -11.6593 -11.1920 -11.1901
   -10.3926 -10.3683 -10.1185 -10.1155  -9.5897  -9.5888  -8.8373  -8.8267
    -8.8231  -8.7664  -8.7631  -8.5972  -8.1978  -8.0536  -8.0147  -7.8302
    -7.8276  -7.4397  -7.4373  -7.2835  -7.2583  -7.2084  -7.2076  -6.9622
    -6.9552  -6.5681  -6.5369  -6.1545  -6.1537  -5.8723  -5.4193  -5.2973
    -5.2739  -5.2010  -4.9130  -4.9009  -4.5083  -4.3580  -4.3398  -3.9802
    -2.8625  -2.0278  -2.0062  -1.8254  -1.6338  -1.5784  -1.4850  -1.4718
    -1.3807  -1.3747  -1.3255  -0.7484   0.6798   0.8496   1.0546   1.2015
     1.2971   1.4821   1.5193   1.5744   1.6090   1.7978

          k = 0.1667-0.4811 0.0000 ( 59291 PWs)   bands (ev):

   -72.8816 -72.8742 -44.4319 -44.3569 -44.2813 -44.2740 -44.2552 -44.2478
   -21.1171 -20.9127 -20.7235 -20.1615 -19.8049 -19.4672 -19.3176 -19.1754
   -19.0150 -18.7793 -18.6422 -18.5449 -18.1499 -18.0899 -17.9228 -17.7246
   -12.3487 -12.1138 -12.0453 -11.9070 -11.6811 -11.6597 -11.5533 -10.9428
   -10.8908 -10.6241 -10.5238  -9.8610  -9.6939  -9.3368  -9.1116  -8.6685
    -8.6235  -8.5539  -8.3897  -8.3677  -8.1623  -8.1233  -8.0634  -8.0509
    -7.6894  -7.6241  -7.4949  -7.4750  -7.3567  -7.1716  -7.0684  -6.8611
    -6.6228  -6.3896  -6.1785  -6.1586  -5.9727  -5.9300  -5.7844  -5.7458
    -5.4522  -5.3977  -5.2100  -5.0424  -4.4457  -4.3485  -4.0897  -3.7680
    -2.8596  -2.0275  -2.0068  -1.8219  -1.6321  -1.5782  -1.4876  -1.4722
    -1.3806  -1.3745  -1.3275  -0.7528   0.5935   0.8371   1.0742   1.1147
     1.2440   1.2729   1.3969   1.8410   1.9291   2.1093

          k = 0.1667-0.0962 0.0000 ( 59226 PWs)   bands (ev):

   -72.8816 -72.8742 -44.4319 -44.3569 -44.2813 -44.2739 -44.2552 -44.2478
   -21.3139 -20.5362 -20.3476 -20.3380 -19.9907 -19.9798 -19.8065 -18.7318
   -18.7212 -18.3766 -18.3683 -18.3554 -18.2705 -18.2619 -18.0794 -18.0708
   -12.5087 -12.5022 -12.4087 -11.5828 -11.5760 -11.4279 -11.4205 -10.9272
   -10.9240  -9.9306  -9.9262  -9.6764  -9.3756  -9.3730  -9.2312  -9.2285
    -9.0430  -9.0409  -8.9241  -8.3250  -8.3216  -7.9024  -7.9000  -7.8814
    -7.8458  -7.7711  -7.6115  -7.5808  -7.1378  -7.0901  -6.9600  -6.8893
    -6.8856  -6.8515  -6.5328  -6.5282  -6.2582  -5.3539  -5.3146  -5.1441
    -5.0660  -4.8099  -4.8007  -4.7489  -4.6160  -4.6078  -4.3560  -4.3298
    -2.8657  -2.0281  -2.0056  -1.8289  -1.6363  -1.5785  -1.4826  -1.4713
    -1.3807  -1.3751  -1.3238  -0.7438   0.7822   0.8453   1.0060   1.2107
     1.2601   1.3479   1.5829   1.6018   1.7298   1.9411

          k =-0.5000-0.8660 0.0000 ( 59292 PWs)   bands (ev):

   -72.8816 -72.8742 -44.4319 -44.3569 -44.2813 -44.2740 -44.2551 -44.2478
   -21.0499 -21.0476 -20.4721 -20.4626 -19.4299 -19.4195 -19.4146 -19.4085
   -18.9925 -18.9901 -18.3259 -18.3210 -18.3171 -18.3148 -17.7962 -17.7874
   -12.0715 -12.0662 -12.0637 -12.0617 -11.8804 -11.8721 -11.3296 -11.3282
   -10.2368 -10.2309 -10.1370 -10.1335 -10.1302 -10.1259  -8.5905  -8.5507
    -8.5476  -8.5455  -8.5448  -8.5387  -7.8658  -7.8641  -7.8592  -7.8575
    -7.8259  -7.8198  -7.7838  -7.7518  -7.4904  -7.4874  -6.6137  -6.6068
    -6.3628  -6.3315  -6.3064  -6.2929  -6.1904  -6.1886  -5.7121  -5.6971
    -5.5461  -5.5427  -4.7295  -4.7205  -4.6966  -4.6920  -3.8915  -3.8654
    -2.8470  -2.0253  -2.0061  -1.8235  -1.6344  -1.5777  -1.4883  -1.4720
    -1.3858  -1.3784  -1.3306  -0.8721   0.7792   0.9976   1.1204   1.1633
     1.3651   1.5683   1.5852   1.6060   1.7322   1.7495

          k =-0.1667 0.2887 0.0000 ( 59267 PWs)   bands (ev):

   -72.8816 -72.8742 -44.4319 -44.3569 -44.2813 -44.2740 -44.2552 -44.2478
   -21.2474 -20.6607 -20.6569 -20.1052 -20.0970 -19.5871 -19.5846 -19.1001
   -18.6979 -18.6923 -18.4585 -18.4509 -18.1957 -18.0860 -18.0789 -17.8504
   -12.4846 -12.2078 -12.2016 -11.8216 -11.8185 -11.6593 -11.1920 -11.1901
   -10.3926 -10.3683 -10.1185 -10.1156  -9.5896  -9.5888  -8.8373  -8.8267
    -8.8231  -8.7664  -8.7631  -8.5972  -8.1979  -8.0536  -8.0147  -7.8301
    -7.8276  -7.4397  -7.4374  -7.2835  -7.2583  -7.2084  -7.2076  -6.9622
    -6.9552  -6.5681  -6.5369  -6.1545  -6.1536  -5.8723  -5.4194  -5.2973
    -5.2740  -5.2009  -4.9130  -4.9008  -4.5083  -4.3580  -4.3399  -3.9802
    -2.8625  -2.0278  -2.0062  -1.8254  -1.6338  -1.5784  -1.4850  -1.4718
    -1.3807  -1.3747  -1.3255  -0.7484   0.6798   0.8496   1.0546   1.2016
     1.2971   1.4821   1.5193   1.5743   1.6090   1.7978

          k = 0.3333 0.0000 0.0000 ( 59267 PWs)   bands (ev):

   -72.8816 -72.8742 -44.4319 -44.3569 -44.2813 -44.2739 -44.2551 -44.2478
   -21.2470 -20.6861 -20.6314 -20.1060 -20.0946 -19.6138 -19.5599 -19.1022
   -18.7142 -18.6709 -18.4618 -18.4495 -18.1909 -18.1091 -18.0627 -17.8495
   -12.4843 -12.2090 -12.2001 -11.8301 -11.8123 -11.6570 -11.2106 -11.1722
   -10.3917 -10.3681 -10.1311 -10.1032  -9.5961  -9.5812  -8.8454  -8.8238
    -8.8153  -8.7888  -8.7422  -8.5981  -8.1997  -8.1023  -7.9655  -7.8291
    -7.8265  -7.4453  -7.4310  -7.2940  -7.2423  -7.2186  -7.1972  -6.9647
    -6.9543  -6.6186  -6.4937  -6.1574  -6.1499  -5.8787  -5.4192  -5.3115
    -5.2492  -5.2012  -4.9213  -4.8951  -4.4995  -4.3847  -4.3258  -3.9786
    -2.8544  -2.0260  -2.0055  -1.8266  -1.6363  -1.5780  -1.4851  -1.4716
    -1.3841  -1.3775  -1.3273  -0.8315   0.8245   0.9910   1.0791   1.2480
     1.3209   1.4981   1.5152   1.5555   1.5881   1.8294

          k =-0.1667-0.4811 0.0000 ( 59291 PWs)   bands (ev):

   -72.8816 -72.8742 -44.4319 -44.3569 -44.2813 -44.2740 -44.2552 -44.2478
   -21.1171 -20.9127 -20.7235 -20.1615 -19.8049 -19.4672 -19.3176 -19.1754
   -19.0150 -18.7793 -18.6423 -18.5449 -18.1499 -18.0899 -17.9228 -17.7246
   -12.3487 -12.1138 -12.0453 -11.9070 -11.6811 -11.6597 -11.5533 -10.9428
   -10.8908 -10.6241 -10.5237  -9.8610  -9.6939  -9.3369  -9.1116  -8.6685
    -8.6235  -8.5539  -8.3897  -8.3677  -8.1622  -8.1233  -8.0635  -8.0509
    -7.6894  -7.6241  -7.4948  -7.4750  -7.3567  -7.1715  -7.0684  -6.8611
    -6.6229  -6.3896  -6.1786  -6.1586  -5.9727  -5.9299  -5.7844  -5.7458
    -5.4523  -5.3977  -5.2100  -5.0424  -4.4457  -4.3485  -4.0897  -3.7680
    -2.8596  -2.0275  -2.0068  -1.8219  -1.6321  -1.5782  -1.4876  -1.4722
    -1.3806  -1.3745  -1.3275  -0.7528   0.5935   0.8371   1.0742   1.1147
     1.2440   1.2729   1.3969   1.8410   1.9291   2.1093

          k = 0.5000-0.0962 0.0000 ( 59291 PWs)   bands (ev):

   -72.8816 -72.8742 -44.4319 -44.3569 -44.2813 -44.2740 -44.2552 -44.2478
   -21.1143 -20.9203 -20.7186 -20.1596 -19.8050 -19.4694 -19.3234 -19.1704
   -19.0161 -18.7805 -18.6316 -18.5511 -18.1374 -18.1069 -17.9199 -17.7243
   -12.3477 -12.1144 -12.0433 -11.9110 -11.6932 -11.6449 -11.5556 -10.9430
   -10.8887 -10.6224 -10.5262  -9.8586  -9.6946  -9.3379  -9.1110  -8.6580
    -8.6241  -8.5517  -8.4005  -8.3920  -8.1602  -8.1035  -8.0767  -8.0390
    -7.6853  -7.6246  -7.4939  -7.4761  -7.3504  -7.1730  -7.0693  -6.8604
    -6.6233  -6.3990  -6.1948  -6.1580  -5.9573  -5.9292  -5.7837  -5.7487
    -5.4533  -5.3983  -5.1865  -5.0568  -4.4235  -4.3768  -4.0864  -3.7672
    -2.8471  -2.0253  -2.0062  -1.8235  -1.6349  -1.5777  -1.4883  -1.4720
    -1.3858  -1.3785  -1.3306  -0.8719   0.7659   0.9932   1.1091   1.1582
     1.3015   1.3171   1.5509   1.7507   1.8355   1.9192

          k =-0.3333-0.3849 0.0000 ( 59291 PWs)   bands (ev):

   -72.8816 -72.8742 -44.4319 -44.3569 -44.2813 -44.2740 -44.2552 -44.2478
   -21.1153 -20.9176 -20.7205 -20.1594 -19.8071 -19.4673 -19.3182 -19.1740
   -19.0190 -18.7787 -18.6331 -18.5503 -18.1401 -18.1036 -17.9201 -17.7245
   -12.3482 -12.1124 -12.0456 -11.9100 -11.6821 -11.6574 -11.5545 -10.9429
   -10.8883 -10.6218 -10.5271  -9.8594  -9.6947  -9.3372  -9.1119  -8.6613
    -8.6228  -8.5539  -8.3918  -8.3866  -8.1617  -8.1110  -8.0635  -8.0535
    -7.6856  -7.6231  -7.5007  -7.4699  -7.3490  -7.1731  -7.0698  -6.8686
    -6.6212  -6.3907  -6.1791  -6.1602  -5.9699  -5.9281  -5.7838  -5.7574
    -5.4532  -5.3929  -5.1872  -5.0574  -4.4262  -4.3740  -4.0858  -3.7676
    -2.8512  -2.0262  -2.0065  -1.8230  -1.6337  -1.5779  -1.4879  -1.4723
    -1.3840  -1.3771  -1.3295  -0.8355   0.7048   0.9563   1.1030   1.1484
     1.2325   1.3806   1.4286   1.8033   1.9006   1.9170

          k = 0.5000 0.0962 0.0000 ( 59291 PWs)   bands (ev):

   -72.8816 -72.8742 -44.4319 -44.3569 -44.2813 -44.2740 -44.2552 -44.2478
   -21.1143 -20.9203 -20.7186 -20.1596 -19.8050 -19.4694 -19.3234 -19.1704
   -19.0161 -18.7805 -18.6316 -18.5511 -18.1374 -18.1069 -17.9199 -17.7243
   -12.3477 -12.1144 -12.0433 -11.9110 -11.6932 -11.6449 -11.5557 -10.9430
   -10.8887 -10.6224 -10.5263  -9.8586  -9.6946  -9.3379  -9.1110  -8.6580
    -8.6241  -8.5518  -8.4005  -8.3920  -8.1602  -8.1035  -8.0766  -8.0390
    -7.6854  -7.6246  -7.4939  -7.4762  -7.3504  -7.1731  -7.0692  -6.8604
    -6.6232  -6.3990  -6.1948  -6.1579  -5.9573  -5.9292  -5.7838  -5.7487
    -5.4533  -5.3984  -5.1865  -5.0568  -4.4235  -4.3767  -4.0864  -3.7672
    -2.8471  -2.0253  -2.0062  -1.8235  -1.6349  -1.5777  -1.4883  -1.4720
    -1.3858  -1.3785  -1.3306  -0.8719   0.7659   0.9932   1.1091   1.1583
     1.3015   1.3171   1.5509   1.7507   1.8355   1.9192

          k =-0.3333 0.3849 0.0000 ( 59291 PWs)   bands (ev):

   -72.8816 -72.8742 -44.4319 -44.3569 -44.2813 -44.2740 -44.2552 -44.2478
   -21.1153 -20.9176 -20.7205 -20.1594 -19.8071 -19.4673 -19.3182 -19.1740
   -19.0190 -18.7787 -18.6331 -18.5503 -18.1400 -18.1036 -17.9201 -17.7245
   -12.3482 -12.1124 -12.0456 -11.9100 -11.6821 -11.6574 -11.5545 -10.9429
   -10.8882 -10.6218 -10.5271  -9.8594  -9.6946  -9.3372  -9.1119  -8.6613
    -8.6228  -8.5538  -8.3918  -8.3866  -8.1618  -8.1110  -8.0634  -8.0535
    -7.6856  -7.6231  -7.5007  -7.4699  -7.3490  -7.1730  -7.0699  -6.8686
    -6.6213  -6.3907  -6.1791  -6.1603  -5.9699  -5.9282  -5.7837  -5.7574
    -5.4531  -5.3929  -5.1873  -5.0574  -4.4262  -4.3740  -4.0858  -3.7676
    -2.8512  -2.0262  -2.0065  -1.8230  -1.6337  -1.5779  -1.4879  -1.4723
    -1.3840  -1.3771  -1.3295  -0.8355   0.7048   0.9563   1.1030   1.1484
     1.2325   1.3806   1.4286   1.8033   1.9006   1.9170

          k =-0.1667-0.0962 0.0000 ( 59226 PWs)   bands (ev):

   -72.8816 -72.8742 -44.4319 -44.3569 -44.2813 -44.2739 -44.2552 -44.2478
   -21.3139 -20.5362 -20.3476 -20.3380 -19.9907 -19.9798 -19.8065 -18.7318
   -18.7212 -18.3766 -18.3683 -18.3554 -18.2706 -18.2619 -18.0794 -18.0708
   -12.5087 -12.5022 -12.4087 -11.5828 -11.5760 -11.4279 -11.4205 -10.9272
   -10.9240  -9.9306  -9.9263  -9.6763  -9.3756  -9.3730  -9.2312  -9.2285
    -9.0430  -9.0409  -8.9241  -8.3250  -8.3216  -7.9024  -7.9000  -7.8814
    -7.8457  -7.7711  -7.6114  -7.5808  -7.1378  -7.0901  -6.9601  -6.8892
    -6.8856  -6.8515  -6.5328  -6.5282  -6.2583  -5.3539  -5.3146  -5.1440
    -5.0661  -4.8099  -4.8007  -4.7489  -4.6160  -4.6078  -4.3560  -4.3299
    -2.8657  -2.0281  -2.0056  -1.8289  -1.6363  -1.5785  -1.4826  -1.4713
    -1.3807  -1.3751  -1.3238  -0.7438   0.7822   0.8453   1.0060   1.2106
     1.2601   1.3479   1.5829   1.6018   1.7297   1.9410

          k =-0.0000-0.1925 0.0000 ( 59226 PWs)   bands (ev):

   -72.8816 -72.8742 -44.4319 -44.3569 -44.2813 -44.2739 -44.2551 -44.2478
   -21.3140 -20.5312 -20.3543 -20.3402 -19.9878 -19.9752 -19.8100 -18.7311
   -18.7182 -18.3941 -18.3735 -18.3527 -18.2554 -18.2554 -18.0836 -18.0717
   -12.5100 -12.5010 -12.4086 -11.5848 -11.5756 -11.4270 -11.4182 -10.9287
   -10.9243  -9.9296  -9.9271  -9.6768  -9.3761  -9.3713  -9.2307  -9.2295
    -9.0429  -9.0413  -8.9247  -8.3244  -8.3213  -7.9013  -7.8994  -7.8643
    -7.8441  -7.7729  -7.6340  -7.5922  -7.1137  -7.0871  -6.9586  -6.8910
    -6.8855  -6.8633  -6.5331  -6.5270  -6.2589  -5.3447  -5.3156  -5.1442
    -5.0659  -4.8367  -4.8080  -4.7524  -4.5958  -4.5894  -4.3581  -4.3369
    -2.8697  -2.0290  -2.0060  -1.8283  -1.6351  -1.5787  -1.4828  -1.4713
    -1.3791  -1.3737  -1.3230  -0.6953   0.6669   0.8052   0.9956   1.1823
     1.2475   1.3794   1.5784   1.6185   1.6872   2.0018

          k = 0.5000-0.8660 0.0000 ( 59292 PWs)   bands (ev):

   -72.8816 -72.8742 -44.4319 -44.3569 -44.2813 -44.2740 -44.2551 -44.2478
   -21.0499 -21.0477 -20.4721 -20.4626 -19.4299 -19.4195 -19.4146 -19.4085
   -18.9924 -18.9902 -18.3258 -18.3212 -18.3171 -18.3147 -17.7962 -17.7874
   -12.0713 -12.0663 -12.0637 -12.0617 -11.8804 -11.8721 -11.3295 -11.3283
   -10.2368 -10.2310 -10.1370 -10.1335 -10.1302 -10.1259  -8.5904  -8.5507
    -8.5475  -8.5455  -8.5448  -8.5387  -7.8658  -7.8641  -7.8592  -7.8576
    -7.8260  -7.8198  -7.7838  -7.7518  -7.4905  -7.4874  -6.6137  -6.6068
    -6.3628  -6.3315  -6.3064  -6.2929  -6.1903  -6.1886  -5.7121  -5.6971
    -5.5462  -5.5428  -4.7294  -4.7205  -4.6967  -4.6920  -3.8915  -3.8655
    -2.8470  -2.0253  -2.0061  -1.8235  -1.6344  -1.5777  -1.4883  -1.4720
    -1.3858  -1.3784  -1.3306  -0.8721   0.7792   0.9976   1.1205   1.1634
     1.3651   1.5683   1.5851   1.6058   1.7324   1.7496

          k =-1.0000 0.0000 0.0000 ( 59292 PWs)   bands (ev):

   -72.8816 -72.8742 -44.4319 -44.3569 -44.2813 -44.2740 -44.2552 -44.2478
   -21.0748 -21.0199 -20.4766 -20.4628 -19.4247 -19.4215 -19.4203 -19.4002
   -19.0134 -18.9707 -18.3714 -18.3358 -18.2919 -18.2806 -17.7985 -17.7868
   -12.1026 -12.0816 -12.0397 -12.0350 -11.8824 -11.8709 -11.3510 -11.3091
   -10.2425 -10.2398 -10.1329 -10.1316 -10.1250 -10.1239  -8.6322  -8.5752
    -8.5582  -8.5281  -8.5174  -8.4914  -7.8758  -7.8697  -7.8610  -7.8604
    -7.8172  -7.8142  -7.7906  -7.7586  -7.5142  -7.4659  -6.6131  -6.6047
    -6.3570  -6.3289  -6.3091  -6.2793  -6.2090  -6.1728  -5.7381  -5.6779
    -5.5669  -5.5224  -4.7948  -4.7537  -4.6492  -4.6442  -3.8892  -3.8698
    -2.8638  -2.0279  -2.0068  -1.8214  -1.6313  -1.5784  -1.4877  -1.4720
    -1.3789  -1.3732  -1.3265  -0.7053   0.5507   0.7529   1.0668   1.1139
     1.1894   1.5476   1.5762   1.5997   1.6414   1.9385

 ------ SPIN DOWN ----------


          k = 0.1667 0.2887 0.0000 ( 59267 PWs)   bands (ev):

   -68.6836 -68.6750 -40.3657 -40.2765 -40.0996 -40.0908 -40.0532 -40.0444
   -21.2437 -20.6570 -20.6534 -20.1012 -20.0937 -19.5838 -19.5805 -19.0963
   -18.6933 -18.6885 -18.4544 -18.4474 -18.1910 -18.0821 -18.0758 -17.8464
   -12.4824 -12.2051 -12.1995 -11.8193 -11.8164 -11.6572 -11.1896 -11.1877
   -10.3899 -10.3659 -10.1155 -10.1132  -9.5871  -9.5866  -8.8249  -8.8207
    -8.8168  -8.7643  -8.7605  -8.5949  -8.1956  -8.0303  -8.0052  -7.8276
    -7.8254  -7.4362  -7.4346  -7.2641  -7.2458  -7.2064  -7.2049  -6.9596
    -6.9531  -6.5475  -6.5287  -6.1519  -6.1513  -5.8565  -5.4163  -5.2746
    -5.2626  -5.1983  -4.8984  -4.8887  -4.4912  -4.3427  -4.3316  -3.9667
    -1.4448   0.3809   0.8057   1.0066   1.1372   1.1936   1.2719   1.3517
     1.4271   1.4920   1.5542   1.6044   1.6320   1.7451   1.9068   1.9765
     2.0403   2.0907   2.1431   2.1844   2.2901   2.3354

          k = 0.1667-0.4811 0.0000 ( 59291 PWs)   bands (ev):

   -68.6836 -68.6750 -40.3657 -40.2765 -40.0996 -40.0908 -40.0532 -40.0444
   -21.1131 -20.9096 -20.7198 -20.1577 -19.8013 -19.4635 -19.3139 -19.1714
   -19.0112 -18.7757 -18.6371 -18.5418 -18.1443 -18.0878 -17.9188 -17.7206
   -12.3464 -12.1115 -12.0431 -11.9048 -11.6791 -11.6571 -11.5510 -10.9402
   -10.8881 -10.6215 -10.5214  -9.8581  -9.6916  -9.3340  -9.1092  -8.6458
    -8.6210  -8.5509  -8.3875  -8.3561  -8.1598  -8.1067  -8.0612  -8.0486
    -7.6867  -7.6217  -7.4924  -7.4728  -7.3395  -7.1687  -7.0661  -6.8457
    -6.6197  -6.3746  -6.1626  -6.1560  -5.9579  -5.9269  -5.7818  -5.7309
    -5.4497  -5.3834  -5.1882  -5.0333  -4.4252  -4.3421  -4.0763  -3.7547
    -1.4355   0.3685   0.8016   0.9679   1.0482   1.1400   1.2202   1.2858
     1.3741   1.4223   1.5689   1.7310   1.8000   1.8795   1.9079   2.0698
     2.1116   2.1376   2.1620   2.2217   2.3078   2.3338

          k = 0.1667-0.0962 0.0000 ( 59226 PWs)   bands (ev):

   -68.6836 -68.6750 -40.3657 -40.2765 -40.0996 -40.0908 -40.0532 -40.0443
   -21.3102 -20.5321 -20.3440 -20.3349 -19.9862 -19.9765 -19.8033 -18.7269
   -18.7175 -18.3718 -18.3646 -18.3517 -18.2661 -18.2581 -18.0756 -18.0677
   -12.5061 -12.5002 -12.4064 -11.5803 -11.5741 -11.4252 -11.4184 -10.9246
   -10.9217  -9.9279  -9.9241  -9.6736  -9.3731  -9.3706  -9.2281  -9.2258
    -9.0406  -9.0386  -8.9060  -8.3218  -8.3188  -7.8997  -7.8975  -7.8602
    -7.8419  -7.7688  -7.5953  -7.5707  -7.1135  -7.0796  -6.9574  -6.8867
    -6.8836  -6.8414  -6.5301  -6.5260  -6.2558  -5.3308  -5.3031  -5.1413
    -5.0634  -4.7916  -4.7846  -4.7376  -4.6023  -4.5950  -4.3405  -4.3207
    -1.4541   0.3952   0.8115   1.0011   1.0994   1.1608   1.2130   1.3266
     1.4711   1.5362   1.6023   1.6931   1.7817   1.8620   1.8931   1.9381
     1.9811   2.0567   2.1245   2.1354   2.2450   2.3065

          k =-0.5000-0.8660 0.0000 ( 59292 PWs)   bands (ev):

   -68.6836 -68.6750 -40.3657 -40.2765 -40.0996 -40.0908 -40.0532 -40.0444
   -21.0463 -21.0437 -20.4683 -20.4595 -19.4247 -19.4156 -19.4113 -19.4054
   -18.9891 -18.9862 -18.3202 -18.3181 -18.3155 -18.3090 -17.7919 -17.7839
   -12.0676 -12.0646 -12.0625 -12.0588 -11.8780 -11.8704 -11.3272 -11.3258
   -10.2339 -10.2289 -10.1337 -10.1308 -10.1276 -10.1237  -8.5631  -8.5451
    -8.5446  -8.5435  -8.5420  -8.5324  -7.8631  -7.8614  -7.8572  -7.8554
    -7.8222  -7.8166  -7.7668  -7.7414  -7.4887  -7.4846  -6.6106  -6.6047
    -6.3335  -6.3128  -6.2960  -6.2840  -6.1881  -6.1853  -5.6946  -5.6880
    -5.5438  -5.5399  -4.7080  -4.6983  -4.6888  -4.6861  -3.8750  -3.8556
    -1.4116   0.1304   0.8062   1.0589   1.0710   1.1537   1.2903   1.4243
     1.5163   1.5390   1.5906   1.7014   1.7606   1.8758   1.9223   1.9548
     1.9758   2.0495   2.1579   2.2177   2.3115   2.3400

          k =-0.1667 0.2887 0.0000 ( 59267 PWs)   bands (ev):

   -68.6836 -68.6750 -40.3657 -40.2765 -40.0996 -40.0908 -40.0532 -40.0444
   -21.2437 -20.6570 -20.6534 -20.1012 -20.0937 -19.5838 -19.5805 -19.0963
   -18.6932 -18.6885 -18.4544 -18.4474 -18.1910 -18.0821 -18.0758 -17.8464
   -12.4823 -12.2051 -12.1995 -11.8192 -11.8164 -11.6572 -11.1895 -11.1877
   -10.3899 -10.3659 -10.1154 -10.1132  -9.5870  -9.5866  -8.8249  -8.8206
    -8.8168  -8.7643  -8.7606  -8.5949  -8.1956  -8.0302  -8.0052  -7.8276
    -7.8253  -7.4362  -7.4346  -7.2641  -7.2458  -7.2063  -7.2049  -6.9597
    -6.9531  -6.5474  -6.5288  -6.1519  -6.1512  -5.8565  -5.4164  -5.2745
    -5.2626  -5.1982  -4.8984  -4.8887  -4.4912  -4.3427  -4.3316  -3.9666
    -1.4448   0.3809   0.8057   1.0066   1.1371   1.1937   1.2719   1.3517
     1.4271   1.4920   1.5541   1.6043   1.6320   1.7451   1.9068   1.9765
     2.0403   2.0907   2.1431   2.1844   2.2901   2.3355

          k = 0.3333 0.0000 0.0000 ( 59267 PWs)   bands (ev):

   -68.6836 -68.6750 -40.3657 -40.2765 -40.0996 -40.0908 -40.0532 -40.0444
   -21.2434 -20.6807 -20.6295 -20.1023 -20.0911 -19.6082 -19.5579 -19.0981
   -18.7083 -18.6692 -18.4577 -18.4457 -18.1870 -18.1028 -18.0609 -17.8457
   -12.4820 -12.2067 -12.1977 -11.8276 -11.8102 -11.6552 -11.2071 -11.1707
   -10.3891 -10.3656 -10.1275 -10.1015  -9.5933  -9.5793  -8.8319  -8.8203
    -8.8080  -8.7852  -8.7410  -8.5957  -8.1972  -8.0735  -7.9617  -7.8267
    -7.8244  -7.4416  -7.4287  -7.2729  -7.2330  -7.2155  -7.1957  -6.9621
    -6.9520  -6.5917  -6.4896  -6.1545  -6.1478  -5.8611  -5.4162  -5.2910
    -5.2387  -5.1986  -4.9049  -4.8841  -4.4847  -4.3672  -4.3162  -3.9657
    -1.4296   0.2111   0.8535   1.0044   1.1117   1.1733   1.2917   1.4404
     1.4764   1.4891   1.5532   1.7130   1.7708   1.8470   1.8971   1.9394
     2.0119   2.0842   2.1280   2.1858   2.2958   2.3215

          k =-0.1667-0.4811 0.0000 ( 59291 PWs)   bands (ev):

   -68.6836 -68.6750 -40.3657 -40.2765 -40.0996 -40.0908 -40.0532 -40.0444
   -21.1131 -20.9096 -20.7198 -20.1577 -19.8013 -19.4635 -19.3139 -19.1714
   -19.0113 -18.7757 -18.6371 -18.5418 -18.1443 -18.0878 -17.9188 -17.7206
   -12.3464 -12.1115 -12.0431 -11.9048 -11.6791 -11.6571 -11.5510 -10.9402
   -10.8881 -10.6215 -10.5214  -9.8580  -9.6916  -9.3341  -9.1092  -8.6458
    -8.6210  -8.5509  -8.3875  -8.3561  -8.1598  -8.1067  -8.0612  -8.0486
    -7.6867  -7.6217  -7.4923  -7.4728  -7.3395  -7.1687  -7.0661  -6.8457
    -6.6197  -6.3746  -6.1627  -6.1561  -5.9579  -5.9268  -5.7818  -5.7309
    -5.4497  -5.3834  -5.1882  -5.0334  -4.4252  -4.3421  -4.0763  -3.7547
    -1.4355   0.3685   0.8015   0.9679   1.0482   1.1400   1.2202   1.2858
     1.3741   1.4223   1.5690   1.7310   1.8000   1.8795   1.9079   2.0698
     2.1116   2.1376   2.1619   2.2217   2.3076   2.3338

          k = 0.5000-0.0962 0.0000 ( 59291 PWs)   bands (ev):

   -68.6836 -68.6750 -40.3657 -40.2765 -40.0996 -40.0908 -40.0532 -40.0444
   -21.1106 -20.9162 -20.7155 -20.1560 -19.8014 -19.4653 -19.3189 -19.1671
   -19.0121 -18.7766 -18.6280 -18.5472 -18.1334 -18.1023 -17.9164 -17.7203
   -12.3454 -12.1120 -12.0412 -11.9086 -11.6904 -11.6435 -11.5531 -10.9405
   -10.8861 -10.6199 -10.5237  -9.8560  -9.6922  -9.3349  -9.1087  -8.6385
    -8.6214  -8.5491  -8.3918  -8.3776  -8.1580  -8.0927  -8.0732  -8.0378
    -7.6831  -7.6222  -7.4915  -7.4739  -7.3349  -7.1700  -7.0668  -6.8452
    -6.6201  -6.3804  -6.1749  -6.1556  -5.9471  -5.9263  -5.7811  -5.7329
    -5.4507  -5.3842  -5.1713  -5.0437  -4.4074  -4.3641  -4.0738  -3.7543
    -1.4117   0.1320   0.8070   1.0294   1.0638   1.1441   1.2132   1.2922
     1.4236   1.5967   1.6880   1.8010   1.8603   1.9178   1.9536   1.9927
     2.0291   2.1081   2.1995   2.2358   2.2984   2.3489

          k =-0.3333-0.3849 0.0000 ( 59291 PWs)   bands (ev):

   -68.6836 -68.6750 -40.3657 -40.2765 -40.0996 -40.0908 -40.0532 -40.0444
   -21.1115 -20.9139 -20.7171 -20.1558 -19.8032 -19.4635 -19.3145 -19.1703
   -19.0147 -18.7750 -18.6292 -18.5465 -18.1357 -18.0996 -17.9165 -17.7204
   -12.3460 -12.1101 -12.0434 -11.9075 -11.6801 -11.6551 -11.5521 -10.9404
   -10.8858 -10.6193 -10.5244  -9.8566  -9.6923  -9.3345  -9.1095  -8.6406
    -8.6204  -8.5508  -8.3888  -8.3700  -8.1594  -8.0980  -8.0611  -8.0509
    -7.6834  -7.6208  -7.4976  -7.4683  -7.3340  -7.1700  -7.0673  -6.8509
    -6.6183  -6.3752  -6.1635  -6.1572  -5.9556  -5.9253  -5.7813  -5.7394
    -5.4506  -5.3804  -5.1722  -5.0438  -4.4096  -4.3617  -4.0735  -3.7545
    -1.4198   0.1983   0.7936   1.0211   1.0596   1.1609   1.2153   1.3013
     1.4050   1.5164   1.6841   1.7762   1.8497   1.9056   1.9447   2.0056
     2.0605   2.0828   2.1432   2.2174   2.3120   2.3377

          k = 0.5000 0.0962 0.0000 ( 59291 PWs)   bands (ev):

   -68.6836 -68.6750 -40.3657 -40.2765 -40.0996 -40.0908 -40.0532 -40.0444
   -21.1106 -20.9162 -20.7155 -20.1560 -19.8014 -19.4653 -19.3189 -19.1671
   -19.0121 -18.7766 -18.6280 -18.5472 -18.1334 -18.1023 -17.9164 -17.7203
   -12.3454 -12.1120 -12.0412 -11.9086 -11.6904 -11.6434 -11.5531 -10.9404
   -10.8861 -10.6199 -10.5237  -9.8560  -9.6922  -9.3349  -9.1086  -8.6385
    -8.6214  -8.5491  -8.3918  -8.3776  -8.1580  -8.0926  -8.0732  -8.0377
    -7.6831  -7.6221  -7.4915  -7.4740  -7.3349  -7.1700  -7.0668  -6.8452
    -6.6200  -6.3804  -6.1748  -6.1555  -5.9472  -5.9262  -5.7812  -5.7329
    -5.4507  -5.3842  -5.1713  -5.0437  -4.4074  -4.3641  -4.0738  -3.7543
    -1.4117   0.1320   0.8070   1.0294   1.0638   1.1441   1.2132   1.2922
     1.4236   1.5967   1.6879   1.8010   1.8602   1.9178   1.9536   1.9927
     2.0291   2.1081   2.1995   2.2358   2.2984   2.3488

          k =-0.3333 0.3849 0.0000 ( 59291 PWs)   bands (ev):

   -68.6836 -68.6750 -40.3657 -40.2765 -40.0996 -40.0908 -40.0532 -40.0444
   -21.1115 -20.9139 -20.7171 -20.1558 -19.8032 -19.4635 -19.3145 -19.1703
   -19.0147 -18.7751 -18.6292 -18.5465 -18.1356 -18.0996 -17.9165 -17.7204
   -12.3459 -12.1101 -12.0434 -11.9075 -11.6801 -11.6551 -11.5521 -10.9404
   -10.8858 -10.6193 -10.5244  -9.8566  -9.6922  -9.3344  -9.1095  -8.6406
    -8.6204  -8.5508  -8.3889  -8.3700  -8.1595  -8.0980  -8.0611  -8.0509
    -7.6833  -7.6208  -7.4976  -7.4683  -7.3341  -7.1700  -7.0674  -6.8509
    -6.6183  -6.3752  -6.1635  -6.1573  -5.9556  -5.9254  -5.7812  -5.7394
    -5.4505  -5.3804  -5.1722  -5.0438  -4.4097  -4.3617  -4.0735  -3.7545
    -1.4198   0.1983   0.7936   1.0211   1.0596   1.1609   1.2154   1.3013
     1.4050   1.5164   1.6841   1.7762   1.8498   1.9057   1.9447   2.0056
     2.0605   2.0828   2.1432   2.2175   2.3121   2.3378

          k =-0.1667-0.0962 0.0000 ( 59226 PWs)   bands (ev):

   -68.6836 -68.6750 -40.3657 -40.2765 -40.0996 -40.0908 -40.0532 -40.0443
   -21.3102 -20.5321 -20.3440 -20.3349 -19.9862 -19.9765 -19.8033 -18.7269
   -18.7175 -18.3718 -18.3646 -18.3517 -18.2661 -18.2581 -18.0756 -18.0677
   -12.5061 -12.5002 -12.4064 -11.5803 -11.5741 -11.4252 -11.4184 -10.9246
   -10.9217  -9.9279  -9.9241  -9.6736  -9.3731  -9.3706  -9.2281  -9.2259
    -9.0406  -9.0386  -8.9060  -8.3219  -8.3188  -7.8997  -7.8975  -7.8602
    -7.8419  -7.7689  -7.5953  -7.5707  -7.1135  -7.0796  -6.9575  -6.8867
    -6.8835  -6.8414  -6.5301  -6.5260  -6.2559  -5.3308  -5.3031  -5.1412
    -5.0635  -4.7915  -4.7846  -4.7376  -4.6023  -4.5950  -4.3405  -4.3207
    -1.4541   0.3952   0.8115   1.0011   1.0994   1.1608   1.2130   1.3266
     1.4711   1.5363   1.6023   1.6931   1.7817   1.8620   1.8931   1.9381
     1.9811   2.0567   2.1246   2.1354   2.2449   2.3064

          k =-0.0000-0.1925 0.0000 ( 59226 PWs)   bands (ev):

   -68.6836 -68.6750 -40.3657 -40.2765 -40.0996 -40.0908 -40.0532 -40.0444
   -21.3103 -20.5277 -20.3499 -20.3368 -19.9839 -19.9722 -19.8064 -18.7266
   -18.7147 -18.3877 -18.3684 -18.3492 -18.2534 -18.2524 -18.0794 -18.0682
   -12.5078 -12.4987 -12.4062 -11.5822 -11.5736 -11.4247 -11.4160 -10.9260
   -10.9220  -9.9272  -9.9247  -9.6739  -9.3734  -9.3692  -9.2280  -9.2266
    -9.0405  -9.0390  -8.9064  -8.3216  -8.3183  -7.8989  -7.8972  -7.8506
    -7.8379  -7.7704  -7.6102  -7.5798  -7.0980  -7.0758  -6.9562  -6.8884
    -6.8832  -6.8499  -6.5306  -6.5248  -6.2564  -5.3253  -5.3026  -5.1414
    -5.0632  -4.8119  -4.7901  -4.7386  -4.5882  -4.5817  -4.3430  -4.3245
    -1.4613   0.5294   0.7727   0.9822   1.1136   1.1533   1.2066   1.3039
     1.4500   1.4805   1.5238   1.6253   1.7307   1.8456   1.9299   1.9449
     2.0580   2.0736   2.1579   2.1652   2.1885   2.3146

          k = 0.5000-0.8660 0.0000 ( 59292 PWs)   bands (ev):

   -68.6836 -68.6750 -40.3657 -40.2765 -40.0996 -40.0908 -40.0532 -40.0444
   -21.0463 -21.0437 -20.4683 -20.4595 -19.4247 -19.4156 -19.4113 -19.4054
   -18.9891 -18.9862 -18.3201 -18.3182 -18.3155 -18.3090 -17.7919 -17.7839
   -12.0675 -12.0648 -12.0625 -12.0588 -11.8780 -11.8704 -11.3271 -11.3258
   -10.2340 -10.2290 -10.1337 -10.1308 -10.1276 -10.1237  -8.5631  -8.5451
    -8.5446  -8.5435  -8.5420  -8.5324  -7.8630  -7.8614  -7.8571  -7.8555
    -7.8223  -7.8167  -7.7668  -7.7414  -7.4888  -7.4847  -6.6106  -6.6046
    -6.3335  -6.3128  -6.2960  -6.2840  -6.1880  -6.1852  -5.6945  -5.6880
    -5.5439  -5.5400  -4.7079  -4.6982  -4.6889  -4.6861  -3.8750  -3.8557
    -1.4116   0.1304   0.8062   1.0589   1.0710   1.1537   1.2903   1.4244
     1.5163   1.5389   1.5906   1.7014   1.7607   1.8758   1.9224   1.9548
     1.9757   2.0495   2.1579   2.2177   2.3115   2.3400

          k =-1.0000 0.0000 0.0000 ( 59292 PWs)   bands (ev):

   -68.6836 -68.6750 -40.3657 -40.2765 -40.0996 -40.0908 -40.0532 -40.0443
   -21.0695 -21.0181 -20.4723 -20.4595 -19.4208 -19.4170 -19.4166 -19.3975
   -19.0076 -18.9690 -18.3638 -18.3294 -18.2906 -18.2799 -17.7940 -17.7831
   -12.0990 -12.0784 -12.0384 -12.0342 -11.8800 -11.8691 -11.3474 -11.3076
   -10.2396 -10.2367 -10.1300 -10.1293 -10.1224 -10.1222  -8.6022  -8.5709
    -8.5552  -8.5269  -8.5166  -8.4876  -7.8724  -7.8665  -7.8580  -7.8580
    -7.8121  -7.8114  -7.7729  -7.7466  -7.5105  -7.4648  -6.6104  -6.6026
    -6.3321  -6.3116  -6.2974  -6.2717  -6.2049  -6.1708  -5.7195  -5.6674
    -5.5628  -5.5212  -4.7645  -4.7308  -4.6465  -4.6420  -3.8746  -3.8576
    -1.4430   0.4893   0.8281   0.9459   1.0431   1.1411   1.2237   1.2721
     1.3629   1.4935   1.5848   1.6419   1.6717   1.8005   1.8701   1.8919
     2.1322   2.1346   2.1564   2.1834   2.3227   2.3322

     the Fermi energy is    -1.1776 ev

!    total energy              =   -1133.82816301 Ry

     total all-electron energy =     -6753.503866 Ry
     estimated scf accuracy    <       0.00000002 Ry
     smearing contrib. (-TS)   =      -0.00000000 Ry
     internal energy E=F+TS    =   -1133.82816301 Ry

     The total energy is F=E-TS. E is the sum of the following terms:
     one-electron contribution =   -3952.09791064 Ry
     hartree contribution      =    2004.23679657 Ry
     xc contribution           =    -186.01830672 Ry
     ewald contribution        =    1359.42847337 Ry
     DFT-D3 Dispersion         =      -0.13459427 Ry
     one-center paw contrib.   =    -359.24262132 Ry

     total magnetization       =    10.00 Bohr mag/cell
     absolute magnetization    =    10.01 Bohr mag/cell

     convergence has been achieved in  15 iterations

     Writing output data file ./mytmp/Crdimer0.1425-0.0.save/
 
     init_run     :     18.66s CPU     20.08s WALL (       1 calls)
     electrons    :    539.41s CPU    587.29s WALL (       1 calls)

     Called by init_run:
     wfcinit      :     13.72s CPU     14.62s WALL (       1 calls)
     potinit      :      1.50s CPU      1.61s WALL (       1 calls)
     hinit0       :      1.53s CPU      1.62s WALL (       1 calls)

     Called by electrons:
     c_bands      :    423.38s CPU    450.40s WALL (      15 calls)
     sum_band     :     84.45s CPU     96.40s WALL (      15 calls)
     v_of_rho     :      6.09s CPU      6.95s WALL (      16 calls)
     newd         :     17.57s CPU     25.16s WALL (      16 calls)
     PAW_pot      :      7.27s CPU      7.92s WALL (      16 calls)
     mix_rho      :      1.07s CPU      1.09s WALL (      15 calls)

     Called by c_bands:
     init_us_2    :      5.37s CPU      5.40s WALL (     930 calls)
     cegterg      :    410.16s CPU    437.06s WALL (     450 calls)

     Called by *egterg:
     cdiaghg      :     27.72s CPU     43.83s WALL (    2954 calls)
     h_psi        :    262.19s CPU    271.51s WALL (    2984 calls)
     s_psi        :     29.24s CPU     29.35s WALL (    2984 calls)
     g_psi        :      0.76s CPU      0.78s WALL (    2504 calls)

     Called by h_psi:
     h_psi:calbec :     30.46s CPU     31.19s WALL (    2984 calls)
     vloc_psi     :    200.05s CPU    208.48s WALL (    2984 calls)
     add_vuspsi   :     29.39s CPU     29.55s WALL (    2984 calls)

     General routines
     calbec       :     40.49s CPU     41.45s WALL (    3434 calls)
     fft          :      8.81s CPU     13.43s WALL (     394 calls)
     ffts         :      0.12s CPU      0.12s WALL (      62 calls)
     fftw         :    206.30s CPU    214.97s WALL (  269108 calls)
     interpolate  :      0.44s CPU      0.47s WALL (      32 calls)
 
     Parallel routines
     fft_scatt_xy :     33.64s CPU     34.84s WALL (  269564 calls)
     fft_scatt_yz :     84.25s CPU     92.78s WALL (  269564 calls)
 
     PWSCF        :   9m20.10s CPU  10m12.12s WALL

 
   This run was terminated on:  13:50:22   2Apr2021            

=------------------------------------------------------------------------------=
   JOB DONE.
=------------------------------------------------------------------------------=
