
     Program PWSCF v.6.7MaX starts on 31Mar2021 at 11:39:23 

     This program is part of the open-source Quantum ESPRESSO suite
     for quantum simulation of materials; please cite
         "P. Giannozzi et al., J. Phys.:Condens. Matter 21 395502 (2009);
         "P. Giannozzi et al., J. Phys.:Condens. Matter 29 465901 (2017);
          URL http://www.quantum-espresso.org", 
     in publications or presentations arising from this work. More details at
     http://www.quantum-espresso.org/quote

     Parallel version (MPI), running on    48 processors

     MPI processes distributed on     1 nodes
     R & G space division:  proc/nbgrp/npool/nimage =      48
     Reading input from Crdimer0.11-0.4.scf.in

     Current dimensions of program PWSCF are:
     Max number of different atomic species (ntypx) = 10
     Max number of k-points (npk) =  40000
     Max angular momentum in pseudopotentials (lmaxx) =  3
     file N.pbe-n-kjpaw_psl.1.0.0.UPF: wavefunction(s)  2S renormalized
     file Cr.pbe-spn-kjpaw_psl.1.0.0.UPF: wavefunction(s)  3S 3P 3D renormalized
     file Cr.pbe-spn-kjpaw_psl.1.0.0.UPF: wavefunction(s)  3S 3P 3D renormalized

     --------------------------------------------
     Parameters for DFT-D3 Dispersion Correction:
     --------------------------------------------
       Reference C6 values for interpolation: 

         atom   Coordination number   C6
         B          0.000           214.36
         B          0.971           150.74
         B          1.944           106.23
         B          2.913            62.89
         B          4.586            56.06
         N          0.000            50.54
         N          0.994            44.25
         N          2.014            39.35
         N          2.990            31.16
         Cr1        0.000          1381.48
         Cr1        1.827           571.38
         Cr1       10.619           306.69
         Cr2        0.000          1381.48
         Cr2        1.827           571.38
         Cr2       10.619           306.69

       Values used:

         atom   Coordination number  R0_AB[au]  C6      C8
         B          3.336            3.039     62.89   2505.98
         B          3.336            3.039     62.89   2505.98
         B          3.336            3.039     62.89   2505.99
         B          3.335            3.039     62.89   2506.01
         B          3.355            3.039     62.88   2505.50
         B          3.335            3.039     62.89   2506.01
         N          3.134            2.478     31.22    688.69
         N          3.143            2.478     31.21    688.62
         N          3.135            2.478     31.22    688.68
         N          3.134            2.478     31.22    688.70
         N          3.160            2.478     31.21    688.48
         N          3.135            2.478     31.22    688.69
         N          3.143            2.478     31.21    688.61
         N          3.134            2.478     31.22    688.69
         N          3.134            2.478     31.22    688.70
         B          3.346            3.039     62.88   2505.73
         B          3.336            3.039     62.89   2505.98
         B          3.335            3.039     62.89   2506.01
         B          3.355            3.039     62.88   2505.50
         B          3.336            3.039     62.89   2505.98
         B          3.346            3.039     62.88   2505.73
         N          3.143            2.478     31.21    688.61
         B          3.336            3.039     62.89   2506.00
         B          3.366            3.039     62.87   2505.18
         B          3.335            3.039     62.89   2506.00
         N          3.135            2.478     31.22    688.69
         N          3.143            2.478     31.21    688.62
         N          3.134            2.478     31.22    688.70
         N          3.134            2.478     31.22    688.70
         N          3.135            2.478     31.22    688.68
         N          3.134            2.478     31.22    688.70
         B          3.335            3.039     62.89   2506.00
         Cr1        1.085            3.252    616.48  56893.71
         Cr2        1.085            3.252    616.48  56893.71

         Molecular C6 ( Ry / a.u.^6 ) =     68977.93


     Subspace diagonalization in iterative solution of the eigenvalue problem:
     one sub-group per band group will be used
     scalapack distributed-memory algorithm (size of sub-group:  6*  6 procs)

 
     Parallelization info
     --------------------
     sticks:   dense  smooth     PW     G-vecs:    dense   smooth      PW
     Min         235      98     26                36277     9874    1408
     Max         236      99     27                36282     9883    1425
     Sum       11311    4741   1285              1741401   474235   68095
 


     bravais-lattice index     =            4
     lattice parameter (alat)  =      18.9275  a.u.
     unit-cell volume          =   10553.3021 (a.u.)^3
     number of atoms/cell      =           34
     number of atomic types    =            4
     number of electrons       =       156.00
     number of Kohn-Sham states=           94
     kinetic-energy cutoff     =      48.0000  Ry
     charge density cutoff     =     457.0000  Ry
     scf convergence threshold =      1.0E-07
     mixing beta               =       0.5000
     number of iterations used =            8  plain     mixing
     Exchange-correlation= SLA  PW   PBX  PBC
                           (   1   4   3   4   0   0   0)

     celldm(1)=  18.927497  celldm(2)=   0.000000  celldm(3)=   1.797125
     celldm(4)=   0.000000  celldm(5)=   0.000000  celldm(6)=   0.000000

     crystal axes: (cart. coord. in units of alat)
               a(1) = (   1.000000   0.000000   0.000000 )  
               a(2) = (  -0.500000   0.866025   0.000000 )  
               a(3) = (   0.000000   0.000000   1.797125 )  

     reciprocal axes: (cart. coord. in units 2 pi/alat)
               b(1) = (  1.000000  0.577350  0.000000 )  
               b(2) = (  0.000000  1.154701  0.000000 )  
               b(3) = (  0.000000  0.000000  0.556444 )  


     PseudoPot. # 1 for B  read from file:
     /home/sf05/q-e-qe-6.7MaX-Release/pseudo/B.pbe-n-kjpaw_psl.1.0.0.UPF
     MD5 check sum: d9c678ba5d3b2fd7b74e61139c9288d8
     Pseudo is Projector augmented-wave + core cor, Zval =  3.0
     Generated using "atomic" code by A. Dal Corso  v.5.1.2
     Shape of augmentation charge: PSQ
     Using radial grid of 1059 points,  4 beta functions with: 
                l(1) =   0
                l(2) =   0
                l(3) =   1
                l(4) =   1
     Q(r) pseudized with 0 coefficients 


     PseudoPot. # 2 for N  read from file:
     /home/sf05/q-e-qe-6.7MaX-Release/pseudo/N.pbe-n-kjpaw_psl.1.0.0.UPF
     MD5 check sum: e0e4e94a9c4025c5b51bd7d8793849bd
     Pseudo is Projector augmented-wave + core cor, Zval =  5.0
     Generated using "atomic" code by A. Dal Corso  v.5.1.2
     Shape of augmentation charge: PSQ
     Using radial grid of 1085 points,  4 beta functions with: 
                l(1) =   0
                l(2) =   0
                l(3) =   1
                l(4) =   1
     Q(r) pseudized with 0 coefficients 


     PseudoPot. # 3 for Cr read from file:
     /home/sf05/q-e-qe-6.7MaX-Release/pseudo/Cr.pbe-spn-kjpaw_psl.1.0.0.UPF
     MD5 check sum: 198f1a2427a48552563eee314eba32ba
     Pseudo is Projector augmented-wave + core cor, Zval = 14.0
     Generated using &quot;atomic&quot; code by A. Dal Corso  v.6.3
     Shape of augmentation charge: PSQ
     Using radial grid of 1183 points,  6 beta functions with: 
                l(1) =   0
                l(2) =   0
                l(3) =   1
                l(4) =   1
                l(5) =   2
                l(6) =   2
     Q(r) pseudized with 0 coefficients 


     PseudoPot. # 4 for Cr read from file:
     /home/sf05/q-e-qe-6.7MaX-Release/pseudo/Cr.pbe-spn-kjpaw_psl.1.0.0.UPF
     MD5 check sum: 198f1a2427a48552563eee314eba32ba
     Pseudo is Projector augmented-wave + core cor, Zval = 14.0
     Generated using &quot;atomic&quot; code by A. Dal Corso  v.6.3
     Shape of augmentation charge: PSQ
     Using radial grid of 1183 points,  6 beta functions with: 
                l(1) =   0
                l(2) =   0
                l(3) =   1
                l(4) =   1
                l(5) =   2
                l(6) =   2
     Q(r) pseudized with 0 coefficients 


     atomic species   valence    mass     pseudopotential
        B              3.00    10.81100     B ( 1.00)
        N              5.00    14.00674     N ( 1.00)
        Cr1           14.00    51.99610     Cr( 1.00)
        Cr2           14.00    51.99610     Cr( 1.00)

     Starting magnetic structure 
     atomic species   magnetization
        B            0.000
        N            0.000
        Cr1          1.000
        Cr2          1.000

     No symmetry found



   Cartesian axes

     site n.     atom                  positions (alat units)
         1           B   tau(   1) = (  -0.1250000   0.2165064   0.8985623  )
         2           B   tau(   2) = (   0.3750000   0.6495191   0.8985623  )
         3           B   tau(   3) = (   0.2500000   0.0000000   0.8985623  )
         4           B   tau(   4) = (   0.7500000   0.0000000   0.8985623  )
         5           B   tau(   5) = (   0.1250000   0.2165064   0.8985623  )
         6           B   tau(   6) = (  -0.3750000   0.6495191   0.8985623  )
         7           N   tau(   7) = (   0.7500005   0.2886748   0.8985623  )
         8           N   tau(   8) = (   0.3750005   0.5051812   0.8985623  )
         9           N   tau(   9) = (   0.3750005   0.0721685   0.8985623  )
        10           N   tau(  10) = (   0.6250005   0.0721685   0.8985623  )
        11           N   tau(  11) = (   0.2500005   0.2886748   0.8985623  )
        12           N   tau(  12) = (   0.6250005   0.5051812   0.8985623  )
        13           N   tau(  13) = (   0.0000005   0.2886748   0.8985623  )
        14           N   tau(  14) = (   0.2500005   0.7216875   0.8985623  )
        15           N   tau(  15) = (  -0.2499995   0.7216875   0.8985623  )
        16           B   tau(  16) = (   0.0000000   0.4330127   0.8985623  )
        17           B   tau(  17) = (   0.1250000   0.6495191   0.8985623  )
        18           B   tau(  18) = (  -0.1250000   0.6495191   0.8985623  )
        19           B   tau(  19) = (   0.3750000   0.2165064   0.8985623  )
        20           B   tau(  20) = (   0.6250000   0.2165064   0.8985623  )
        21           B   tau(  21) = (   0.5000000   0.4330127   0.8985623  )
        22           N   tau(  22) = (   0.5000005   0.2886748   0.8985623  )
        23           B   tau(  23) = (  -0.2500000   0.4330127   0.8985623  )
        24           B   tau(  24) = (   0.2500000   0.4330127   0.8985623  )
        25           B   tau(  25) = (   0.5000000   0.0000000   0.8985623  )
        26           N   tau(  26) = (  -0.1249995   0.5051812   0.8985623  )
        27           N   tau(  27) = (   0.1250005   0.5051812   0.8985623  )
        28           N   tau(  28) = (   0.0000005   0.7216875   0.8985623  )
        29           N   tau(  29) = (   0.5000005   0.7216875   0.8985623  )
        30           N   tau(  30) = (   0.1250005   0.0721685   0.8985623  )
        31           N   tau(  31) = (   0.8750005   0.0721685   0.8985623  )
        32           B   tau(  32) = (   0.0000000   0.0000000   0.8985623  )
        33           Cr1 tau(  33) = (   0.3600000   0.3464102   1.2040735  )
        34           Cr2 tau(  34) = (   0.1400000   0.3464102   1.2040735  )

     number of k points=    15  Gaussian smearing, width (Ry)=  0.0000
                       cart. coord. in units 2pi/alat
        k(    1) = (   0.1666667   0.2886751   0.0000000), wk =   0.0740741
        k(    2) = (   0.1666667  -0.4811252   0.0000000), wk =   0.0740741
        k(    3) = (   0.1666667  -0.0962250   0.0000000), wk =   0.0740741
        k(    4) = (  -0.5000000  -0.8660254   0.0000000), wk =   0.0370370
        k(    5) = (  -0.1666667   0.2886751   0.0000000), wk =   0.0740741
        k(    6) = (   0.3333333   0.0000000   0.0000000), wk =   0.0740741
        k(    7) = (  -0.1666667  -0.4811252   0.0000000), wk =   0.0740741
        k(    8) = (   0.5000000  -0.0962250   0.0000000), wk =   0.0740741
        k(    9) = (  -0.3333333  -0.3849002   0.0000000), wk =   0.0740741
        k(   10) = (   0.5000000   0.0962250   0.0000000), wk =   0.0740741
        k(   11) = (  -0.3333333   0.3849002   0.0000000), wk =   0.0740741
        k(   12) = (  -0.1666667  -0.0962250   0.0000000), wk =   0.0740741
        k(   13) = (  -0.0000000  -0.1924501   0.0000000), wk =   0.0740741
        k(   14) = (   0.5000000  -0.8660254   0.0000000), wk =   0.0370370
        k(   15) = (  -1.0000000   0.0000000   0.0000000), wk =   0.0370370

     Dense  grid:  1741401 G-vectors     FFT dimensions: ( 135, 135, 240)

     Smooth grid:   474235 G-vectors     FFT dimensions: (  90,  90, 160)

     Estimated max dynamical RAM per process >     218.62 MB

     Estimated total dynamical RAM >      10.25 GB
     Generating pointlists ...
     new r_m :   0.0595 (alat units)  1.1269 (a.u.) for type    1
     new r_m :   0.0595 (alat units)  1.1269 (a.u.) for type    2
     new r_m :   0.0907 (alat units)  1.7177 (a.u.) for type    3
     new r_m :   0.0907 (alat units)  1.7177 (a.u.) for type    4

     Initial potential from superposition of free atoms

     starting charge  155.99382, renormalised to  156.00000

     negative rho (up, down):  6.845E-03 4.655E-04
     Starting wfcs are  148 randomized atomic wfcs
     Checking if some PAW data can be deallocated... 

     total cpu time spent up to now is       19.8 secs

     Self-consistent Calculation

     iteration #  1     ecut=    48.00 Ry     beta= 0.50
     Davidson diagonalization with overlap
     ethr =  1.00E-02,  avg # of iterations =  3.2

     negative rho (up, down):  5.634E-03 2.897E-03

     total cpu time spent up to now is       60.6 secs

     total energy              =   -1130.48992153 Ry
     estimated scf accuracy    <      11.62912949 Ry

     total magnetization       =    12.00 Bohr mag/cell
     absolute magnetization    =    12.17 Bohr mag/cell

     iteration #  2     ecut=    48.00 Ry     beta= 0.50
     Davidson diagonalization with overlap
     ethr =  7.45E-03,  avg # of iterations =  2.9

     negative rho (up, down):  2.392E-02 8.158E-03

     total cpu time spent up to now is       97.8 secs

     total energy              =   -1132.80306650 Ry
     estimated scf accuracy    <       3.83479409 Ry

     total magnetization       =    10.00 Bohr mag/cell
     absolute magnetization    =    10.08 Bohr mag/cell

     iteration #  3     ecut=    48.00 Ry     beta= 0.50
     Davidson diagonalization with overlap
     ethr =  2.46E-03,  avg # of iterations =  8.0

     negative rho (up, down):  1.269E-02 5.592E-03

     total cpu time spent up to now is      138.4 secs

     total energy              =   -1133.42983299 Ry
     estimated scf accuracy    <       1.10071309 Ry

     total magnetization       =    10.00 Bohr mag/cell
     absolute magnetization    =    10.10 Bohr mag/cell

     iteration #  4     ecut=    48.00 Ry     beta= 0.50
     Davidson diagonalization with overlap
     ethr =  7.06E-04,  avg # of iterations =  6.8

     negative rho (up, down):  1.928E-02 8.348E-03

     total cpu time spent up to now is      174.5 secs

     total energy              =   -1133.67649143 Ry
     estimated scf accuracy    <       0.60059707 Ry

     total magnetization       =    10.00 Bohr mag/cell
     absolute magnetization    =    10.02 Bohr mag/cell

     iteration #  5     ecut=    48.00 Ry     beta= 0.50
     Davidson diagonalization with overlap
     ethr =  3.85E-04,  avg # of iterations =  5.1

     negative rho (up, down):  8.224E-03 5.056E-03

     total cpu time spent up to now is      208.6 secs

     total energy              =   -1133.73166048 Ry
     estimated scf accuracy    <       0.07933904 Ry

     total magnetization       =    10.00 Bohr mag/cell
     absolute magnetization    =    10.02 Bohr mag/cell

     iteration #  6     ecut=    48.00 Ry     beta= 0.50
     Davidson diagonalization with overlap
     ethr =  5.09E-05,  avg # of iterations = 10.0

     negative rho (up, down):  5.864E-03 4.256E-03

     total cpu time spent up to now is      251.4 secs

     total energy              =   -1133.74245550 Ry
     estimated scf accuracy    <       0.01844209 Ry

     total magnetization       =    10.00 Bohr mag/cell
     absolute magnetization    =    10.02 Bohr mag/cell

     iteration #  7     ecut=    48.00 Ry     beta= 0.50
     Davidson diagonalization with overlap
     ethr =  1.18E-05,  avg # of iterations =  7.3

     negative rho (up, down):  4.368E-03 4.038E-03

     total cpu time spent up to now is      288.4 secs

     total energy              =   -1133.74624072 Ry
     estimated scf accuracy    <       0.00435966 Ry

     total magnetization       =    10.00 Bohr mag/cell
     absolute magnetization    =    10.02 Bohr mag/cell

     iteration #  8     ecut=    48.00 Ry     beta= 0.50
     Davidson diagonalization with overlap
     c_bands:  1 eigenvalues not converged
     c_bands:  1 eigenvalues not converged
     c_bands:  1 eigenvalues not converged
     ethr =  2.79E-06,  avg # of iterations =  8.0

     negative rho (up, down):  3.694E-03 3.961E-03

     total cpu time spent up to now is      325.1 secs

     total energy              =   -1133.74691924 Ry
     estimated scf accuracy    <       0.00049517 Ry

     total magnetization       =    10.00 Bohr mag/cell
     absolute magnetization    =    10.02 Bohr mag/cell

     iteration #  9     ecut=    48.00 Ry     beta= 0.50
     Davidson diagonalization with overlap
     ethr =  3.17E-07,  avg # of iterations =  5.1

     negative rho (up, down):  3.398E-03 3.947E-03

     total cpu time spent up to now is      359.0 secs

     total energy              =   -1133.74707944 Ry
     estimated scf accuracy    <       0.00008436 Ry

     total magnetization       =    10.00 Bohr mag/cell
     absolute magnetization    =    10.02 Bohr mag/cell

     iteration # 10     ecut=    48.00 Ry     beta= 0.50
     Davidson diagonalization with overlap
     ethr =  5.41E-08,  avg # of iterations =  3.5

     negative rho (up, down):  3.290E-03 3.958E-03

     total cpu time spent up to now is      393.8 secs

     total energy              =   -1133.74713752 Ry
     estimated scf accuracy    <       0.00001528 Ry

     total magnetization       =    10.00 Bohr mag/cell
     absolute magnetization    =    10.02 Bohr mag/cell

     iteration # 11     ecut=    48.00 Ry     beta= 0.50
     Davidson diagonalization with overlap
     ethr =  9.79E-09,  avg # of iterations =  4.5

     negative rho (up, down):  3.257E-03 3.966E-03

     total cpu time spent up to now is      428.0 secs

     total energy              =   -1133.74715702 Ry
     estimated scf accuracy    <       0.00000442 Ry

     total magnetization       =    10.00 Bohr mag/cell
     absolute magnetization    =    10.02 Bohr mag/cell

     iteration # 12     ecut=    48.00 Ry     beta= 0.50
     Davidson diagonalization with overlap
     ethr =  2.83E-09,  avg # of iterations =  4.0

     negative rho (up, down):  3.245E-03 3.969E-03

     total cpu time spent up to now is      461.0 secs

     total energy              =   -1133.74716355 Ry
     estimated scf accuracy    <       0.00000107 Ry

     total magnetization       =    10.00 Bohr mag/cell
     absolute magnetization    =    10.02 Bohr mag/cell

     iteration # 13     ecut=    48.00 Ry     beta= 0.50
     Davidson diagonalization with overlap
     ethr =  6.88E-10,  avg # of iterations =  4.5

     negative rho (up, down):  3.240E-03 3.967E-03

     total cpu time spent up to now is      495.2 secs

     total energy              =   -1133.74716615 Ry
     estimated scf accuracy    <       0.00000019 Ry

     total magnetization       =    10.00 Bohr mag/cell
     absolute magnetization    =    10.02 Bohr mag/cell

     iteration # 14     ecut=    48.00 Ry     beta= 0.50
     Davidson diagonalization with overlap
     ethr =  1.24E-10,  avg # of iterations =  4.7

     negative rho (up, down):  3.238E-03 3.965E-03
 
     Magnetic moment per site:
     atom:    1    charge:    0.8806    magn:    0.0007    constr:    0.0000
     atom:    2    charge:    0.8803    magn:    0.0007    constr:    0.0000
     atom:    3    charge:    0.8801    magn:    0.0001    constr:    0.0000
     atom:    4    charge:    0.8804    magn:    0.0001    constr:    0.0000
     atom:    5    charge:    0.8803    magn:    0.0004    constr:    0.0000
     atom:    6    charge:    0.8804    magn:    0.0001    constr:    0.0000
     atom:    7    charge:    2.8609    magn:    0.0002    constr:    0.0000
     atom:    8    charge:    2.8608    magn:    0.0052    constr:    0.0000
     atom:    9    charge:    2.8608    magn:    0.0020    constr:    0.0000
     atom:   10    charge:    2.8609    magn:    0.0004    constr:    0.0000
     atom:   11    charge:    2.8605    magn:    0.0114    constr:    0.0000
     atom:   12    charge:    2.8610    magn:    0.0004    constr:    0.0000
     atom:   13    charge:    2.8597    magn:    0.0052    constr:    0.0000
     atom:   14    charge:    2.8598    magn:    0.0003    constr:    0.0000
     atom:   15    charge:    2.8600    magn:    0.0000    constr:    0.0000
     atom:   16    charge:    0.8803    magn:   -0.0000    constr:    0.0000
     atom:   17    charge:    0.8800    magn:    0.0007    constr:    0.0000
     atom:   18    charge:    0.8800    magn:    0.0001    constr:    0.0000
     atom:   19    charge:    0.8797    magn:    0.0004    constr:    0.0000
     atom:   20    charge:    0.8801    magn:    0.0007    constr:    0.0000
     atom:   21    charge:    0.8800    magn:   -0.0000    constr:    0.0000
     atom:   22    charge:    2.8609    magn:    0.0052    constr:    0.0000
     atom:   23    charge:    0.8802    magn:    0.0001    constr:    0.0000
     atom:   24    charge:    0.8794    magn:   -0.0006    constr:    0.0000
     atom:   25    charge:    0.8799    magn:    0.0001    constr:    0.0000
     atom:   26    charge:    2.8599    magn:    0.0004    constr:    0.0000
     atom:   27    charge:    2.8596    magn:    0.0052    constr:    0.0000
     atom:   28    charge:    2.8598    magn:    0.0002    constr:    0.0000
     atom:   29    charge:    2.8596    magn:    0.0002    constr:    0.0000
     atom:   30    charge:    2.8595    magn:    0.0020    constr:    0.0000
     atom:   31    charge:    2.8596    magn:    0.0004    constr:    0.0000
     atom:   32    charge:    0.8802    magn:    0.0001    constr:    0.0000
     atom:   33    charge:   11.6539    magn:    3.6431    constr:    0.0000
     atom:   34    charge:   11.6540    magn:    3.6431    constr:    0.0000

     total cpu time spent up to now is      529.8 secs

     End of self-consistent calculation

 ------ SPIN UP ------------


          k = 0.1667 0.2887 0.0000 ( 59267 PWs)   bands (ev):

   -73.2180 -73.0663 -45.1859 -44.5529 -44.5267 -44.4489 -44.4225 -44.3666
   -21.2430 -20.6623 -20.6457 -20.0987 -20.0938 -19.5887 -19.5731 -19.0953
   -18.6981 -18.6827 -18.4517 -18.4477 -18.1910 -18.0826 -18.0713 -17.8453
   -12.4802 -12.2015 -12.1985 -11.8179 -11.8121 -11.6544 -11.1923 -11.1804
   -10.3873 -10.3636 -10.1164 -10.1075  -9.5869  -9.5817  -8.8402  -8.8199
    -8.8174  -8.7663  -8.7531  -8.5922  -8.1927  -8.0658  -7.9956  -7.8248
    -7.8227  -7.4362  -7.4309  -7.2725  -7.2619  -7.2060  -7.1999  -6.9554
    -6.9517  -6.5783  -6.5187  -6.1501  -6.1478  -5.8700  -5.4141  -5.3010
    -5.2691  -5.1958  -4.9042  -4.9037  -4.5101  -4.3532  -4.3365  -3.9788
    -3.6204  -3.1504  -3.0665  -2.5809  -2.0586  -2.0119  -1.4718  -1.4679
    -1.1676  -1.0928  -1.0524  -0.2851   0.5128   0.9147   1.1054   1.2218
     1.3236   1.4875   1.5279   1.5900   1.6169   1.7995

          k = 0.1667-0.4811 0.0000 ( 59291 PWs)   bands (ev):

   -73.2180 -73.0663 -45.1859 -44.5529 -44.5267 -44.4489 -44.4225 -44.3666
   -21.1128 -20.9080 -20.7182 -20.1565 -19.8002 -19.4622 -19.3134 -19.1700
   -19.0104 -18.7740 -18.6375 -18.5398 -18.1450 -18.0848 -17.9173 -17.7196
   -12.3445 -12.1097 -12.0400 -11.9023 -11.6782 -11.6524 -11.5486 -10.9375
   -10.8859 -10.6193 -10.5187  -9.8561  -9.6891  -9.3319  -9.1066  -8.6704
    -8.6188  -8.5487  -8.3847  -8.3668  -8.1569  -8.1147  -8.0604  -8.0442
    -7.6843  -7.6189  -7.4905  -7.4691  -7.3524  -7.1667  -7.0634  -6.8583
    -6.6177  -6.3866  -6.1789  -6.1536  -5.9652  -5.9247  -5.7793  -5.7449
    -5.4470  -5.3921  -5.2121  -5.0385  -4.4491  -4.3441  -4.0854  -3.7684
    -3.6187  -3.1505  -3.0655  -2.5777  -2.0587  -2.0116  -1.4722  -1.4696
    -1.1684  -1.0924  -1.0528  -0.2899   0.4370   0.9543   1.0706   1.1562
     1.2328   1.3166   1.4192   1.8578   1.9005   2.1438

          k = 0.1667-0.0962 0.0000 ( 59226 PWs)   bands (ev):

   -73.2180 -73.0663 -45.1859 -44.5529 -44.5267 -44.4489 -44.4225 -44.3666
   -21.3094 -20.5318 -20.3422 -20.3334 -19.9872 -19.9736 -19.8012 -18.7275
   -18.7162 -18.3698 -18.3666 -18.3508 -18.2630 -18.2573 -18.0742 -18.0655
   -12.5020 -12.4994 -12.4042 -11.5790 -11.5704 -11.4209 -11.4174 -10.9226
   -10.9189  -9.9248  -9.9220  -9.6716  -9.3706  -9.3683  -9.2254  -9.2241
    -9.0375  -9.0362  -8.9235  -8.3192  -8.3172  -7.8970  -7.8952  -7.8814
    -7.8405  -7.7661  -7.6083  -7.5754  -7.1396  -7.0809  -6.9550  -6.8848
    -6.8798  -6.8458  -6.5276  -6.5232  -6.2532  -5.3572  -5.3094  -5.1389
    -5.0609  -4.8119  -4.7992  -4.7521  -4.6079  -4.6010  -4.3569  -4.3240
    -3.6218  -3.1503  -3.0673  -2.5842  -2.0596  -2.0121  -1.4716  -1.4663
    -1.1667  -1.0933  -1.0522  -0.2798   0.5989   0.8677   1.0953   1.2143
     1.2647   1.3522   1.5950   1.6019   1.7611   2.0073

          k =-0.5000-0.8660 0.0000 ( 59292 PWs)   bands (ev):

   -73.2180 -73.0663 -45.1860 -44.5529 -44.5267 -44.4489 -44.4224 -44.3666
   -21.0534 -21.0350 -20.4672 -20.4577 -19.4205 -19.4192 -19.4105 -19.4030
   -18.9927 -18.9798 -18.3270 -18.3208 -18.3125 -18.2985 -17.7910 -17.7823
   -12.0711 -12.0678 -12.0564 -12.0486 -11.8772 -11.8661 -11.3299 -11.3183
   -10.2322 -10.2266 -10.1313 -10.1287 -10.1233 -10.1221  -8.6093  -8.5495
    -8.5443  -8.5385  -8.5308  -8.5223  -7.8610  -7.8598  -7.8538  -7.8531
    -7.8179  -7.8173  -7.7817  -7.7451  -7.4902  -7.4775  -6.6088  -6.6017
    -6.3514  -6.3400  -6.2996  -6.2910  -6.1887  -6.1800  -5.7130  -5.6891
    -5.5454  -5.5332  -4.7485  -4.7239  -4.6903  -4.6662  -3.9006  -3.8597
    -3.6168  -3.1499  -3.0643  -2.5780  -2.0587  -2.0124  -1.4710  -1.4687
    -1.1759  -1.0963  -1.0509  -0.3855   0.5611   0.9566   1.0965   1.1277
     1.5202   1.5871   1.6029   1.6152   1.7561   1.8572

          k =-0.1667 0.2887 0.0000 ( 59267 PWs)   bands (ev):

   -73.2180 -73.0663 -45.1859 -44.5529 -44.5267 -44.4489 -44.4225 -44.3666
   -21.2430 -20.6622 -20.6457 -20.0987 -20.0938 -19.5887 -19.5731 -19.0954
   -18.6980 -18.6827 -18.4517 -18.4477 -18.1910 -18.0826 -18.0714 -17.8453
   -12.4802 -12.2015 -12.1985 -11.8179 -11.8122 -11.6544 -11.1922 -11.1804
   -10.3874 -10.3636 -10.1164 -10.1076  -9.5868  -9.5817  -8.8402  -8.8198
    -8.8173  -8.7663  -8.7531  -8.5922  -8.1927  -8.0658  -7.9956  -7.8248
    -7.8227  -7.4362  -7.4309  -7.2725  -7.2619  -7.2060  -7.1999  -6.9555
    -6.9517  -6.5783  -6.5187  -6.1501  -6.1478  -5.8700  -5.4142  -5.3010
    -5.2692  -5.1957  -4.9042  -4.9037  -4.5101  -4.3532  -4.3365  -3.9788
    -3.6204  -3.1504  -3.0665  -2.5809  -2.0586  -2.0119  -1.4718  -1.4679
    -1.1676  -1.0928  -1.0524  -0.2851   0.5128   0.9147   1.1055   1.2218
     1.3236   1.4876   1.5279   1.5900   1.6170   1.7995

          k = 0.3333 0.0000 0.0000 ( 59267 PWs)   bands (ev):

   -73.2180 -73.0663 -45.1859 -44.5529 -44.5267 -44.4489 -44.4225 -44.3666
   -21.2426 -20.6819 -20.6259 -20.1041 -20.0868 -19.6092 -19.5545 -19.0974
   -18.7106 -18.6653 -18.4585 -18.4424 -18.1872 -18.1027 -18.0575 -17.8444
   -12.4791 -12.2068 -12.1938 -11.8264 -11.8062 -11.6525 -11.2054 -11.1670
   -10.3871 -10.3630 -10.1268 -10.0980  -9.5912  -9.5761  -8.8416  -8.8226
    -8.8106  -8.7839  -8.7368  -8.5930  -8.1945  -8.0996  -7.9614  -7.8250
    -7.8206  -7.4406  -7.4260  -7.2903  -7.2393  -7.2136  -7.1921  -6.9608
    -6.9478  -6.6139  -6.4893  -6.1524  -6.1447  -5.8776  -5.4142  -5.3089
    -5.2476  -5.1961  -4.9286  -4.8828  -4.5001  -4.3815  -4.3212  -3.9796
    -3.6192  -3.1498  -3.0663  -2.5812  -2.0596  -2.0123  -1.4709  -1.4673
    -1.1717  -1.0955  -1.0511  -0.3517   0.5956   0.9051   1.2191   1.2240
     1.3880   1.4751   1.5540   1.5789   1.5962   1.8873

          k =-0.1667-0.4811 0.0000 ( 59291 PWs)   bands (ev):

   -73.2180 -73.0663 -45.1859 -44.5529 -44.5267 -44.4489 -44.4225 -44.3666
   -21.1128 -20.9081 -20.7182 -20.1565 -19.8002 -19.4622 -19.3134 -19.1700
   -19.0104 -18.7740 -18.6375 -18.5398 -18.1450 -18.0848 -17.9173 -17.7196
   -12.3445 -12.1096 -12.0400 -11.9023 -11.6782 -11.6523 -11.5486 -10.9375
   -10.8859 -10.6193 -10.5187  -9.8561  -9.6891  -9.3319  -9.1066  -8.6704
    -8.6188  -8.5487  -8.3846  -8.3668  -8.1568  -8.1147  -8.0605  -8.0442
    -7.6843  -7.6190  -7.4905  -7.4691  -7.3524  -7.1667  -7.0634  -6.8583
    -6.6178  -6.3866  -6.1789  -6.1536  -5.9652  -5.9247  -5.7792  -5.7449
    -5.4470  -5.3921  -5.2121  -5.0386  -4.4491  -4.3441  -4.0854  -3.7684
    -3.6187  -3.1505  -3.0655  -2.5777  -2.0587  -2.0116  -1.4722  -1.4696
    -1.1684  -1.0924  -1.0528  -0.2899   0.4370   0.9543   1.0706   1.1562
     1.2328   1.3166   1.4192   1.8578   1.9005   2.1439

          k = 0.5000-0.0962 0.0000 ( 59291 PWs)   bands (ev):

   -73.2180 -73.0663 -45.1859 -44.5529 -44.5267 -44.4489 -44.4225 -44.3666
   -21.1102 -20.9153 -20.7136 -20.1548 -19.8001 -19.4644 -19.3186 -19.1652
   -19.0117 -18.7753 -18.6274 -18.5454 -18.1345 -18.0997 -17.9147 -17.7191
   -12.3426 -12.1105 -12.0384 -11.9064 -11.6893 -11.6395 -11.5503 -10.9382
   -10.8836 -10.6173 -10.5213  -9.8541  -9.6895  -9.3326  -9.1061  -8.6619
    -8.6195  -8.5466  -8.3919  -8.3882  -8.1551  -8.0994  -8.0722  -8.0335
    -7.6804  -7.6195  -7.4897  -7.4701  -7.3469  -7.1679  -7.0642  -6.8573
    -6.6182  -6.3949  -6.1929  -6.1530  -5.9534  -5.9242  -5.7786  -5.7468
    -5.4481  -5.3947  -5.1876  -5.0506  -4.4273  -4.3693  -4.0857  -3.7701
    -3.6168  -3.1500  -3.0642  -2.5780  -2.0592  -2.0124  -1.4710  -1.4688
    -1.1758  -1.0963  -1.0509  -0.3849   0.5523   0.9480   1.0755   1.1891
     1.2733   1.3557   1.7061   1.8350   1.9361   2.0041

          k =-0.3333-0.3849 0.0000 ( 59291 PWs)   bands (ev):

   -73.2180 -73.0663 -45.1859 -44.5529 -44.5267 -44.4489 -44.4225 -44.3666
   -21.1111 -20.9127 -20.7154 -20.1545 -19.8022 -19.4624 -19.3137 -19.1688
   -19.0143 -18.7734 -18.6288 -18.5448 -18.1365 -18.0971 -17.9148 -17.7194
   -12.3439 -12.1076 -12.0409 -11.9047 -11.6793 -11.6511 -11.5495 -10.9381
   -10.8836 -10.6168 -10.5216  -9.8544  -9.6895  -9.3325  -9.1072  -8.6647
    -8.6181  -8.5483  -8.3862  -8.3821  -8.1564  -8.1057  -8.0607  -8.0462
    -7.6806  -7.6181  -7.4957  -7.4644  -7.3454  -7.1680  -7.0648  -6.8650
    -6.6164  -6.3881  -6.1777  -6.1552  -5.9636  -5.9230  -5.7788  -5.7565
    -5.4479  -5.3890  -5.1896  -5.0503  -4.4320  -4.3647  -4.0858  -3.7690
    -3.6172  -3.1502  -3.0645  -2.5779  -2.0587  -2.0122  -1.4714  -1.4691
    -1.1736  -1.0950  -1.0517  -0.3561   0.5147   0.9551   1.0772   1.1571
     1.2488   1.3795   1.5957   1.8767   1.9259   1.9939

          k = 0.5000 0.0962 0.0000 ( 59291 PWs)   bands (ev):

   -73.2180 -73.0663 -45.1859 -44.5529 -44.5267 -44.4489 -44.4225 -44.3666
   -21.1102 -20.9153 -20.7136 -20.1548 -19.8001 -19.4644 -19.3187 -19.1652
   -19.0116 -18.7753 -18.6274 -18.5454 -18.1345 -18.0997 -17.9146 -17.7191
   -12.3426 -12.1105 -12.0383 -11.9064 -11.6892 -11.6395 -11.5503 -10.9382
   -10.8836 -10.6173 -10.5213  -9.8541  -9.6895  -9.3326  -9.1060  -8.6619
    -8.6195  -8.5466  -8.3919  -8.3882  -8.1551  -8.0994  -8.0721  -8.0335
    -7.6805  -7.6194  -7.4898  -7.4701  -7.3469  -7.1680  -7.0642  -6.8573
    -6.6181  -6.3949  -6.1929  -6.1529  -5.9534  -5.9241  -5.7786  -5.7468
    -5.4481  -5.3948  -5.1876  -5.0506  -4.4273  -4.3693  -4.0857  -3.7701
    -3.6168  -3.1500  -3.0642  -2.5780  -2.0592  -2.0124  -1.4710  -1.4688
    -1.1758  -1.0963  -1.0509  -0.3849   0.5523   0.9481   1.0755   1.1891
     1.2733   1.3557   1.7061   1.8350   1.9360   2.0044

          k =-0.3333 0.3849 0.0000 ( 59291 PWs)   bands (ev):

   -73.2180 -73.0663 -45.1859 -44.5529 -44.5267 -44.4489 -44.4225 -44.3666
   -21.1111 -20.9127 -20.7154 -20.1545 -19.8022 -19.4624 -19.3137 -19.1688
   -19.0143 -18.7734 -18.6288 -18.5448 -18.1365 -18.0971 -17.9148 -17.7194
   -12.3439 -12.1076 -12.0409 -11.9047 -11.6793 -11.6511 -11.5495 -10.9381
   -10.8836 -10.6168 -10.5216  -9.8545  -9.6895  -9.3324  -9.1072  -8.6647
    -8.6181  -8.5483  -8.3862  -8.3821  -8.1564  -8.1057  -8.0606  -8.0463
    -7.6806  -7.6181  -7.4958  -7.4644  -7.3454  -7.1679  -7.0649  -6.8650
    -6.6164  -6.3881  -6.1777  -6.1553  -5.9636  -5.9231  -5.7787  -5.7565
    -5.4478  -5.3890  -5.1896  -5.0503  -4.4321  -4.3647  -4.0858  -3.7690
    -3.6172  -3.1502  -3.0645  -2.5779  -2.0587  -2.0122  -1.4714  -1.4691
    -1.1736  -1.0950  -1.0517  -0.3561   0.5148   0.9551   1.0772   1.1571
     1.2489   1.3795   1.5957   1.8768   1.9259   1.9939

          k =-0.1667-0.0962 0.0000 ( 59226 PWs)   bands (ev):

   -73.2180 -73.0663 -45.1859 -44.5529 -44.5267 -44.4489 -44.4225 -44.3666
   -21.3094 -20.5318 -20.3422 -20.3334 -19.9872 -19.9736 -19.8012 -18.7275
   -18.7162 -18.3698 -18.3666 -18.3508 -18.2630 -18.2573 -18.0742 -18.0655
   -12.5020 -12.4994 -12.4041 -11.5790 -11.5704 -11.4209 -11.4174 -10.9226
   -10.9189  -9.9249  -9.9220  -9.6716  -9.3706  -9.3682  -9.2254  -9.2242
    -9.0375  -9.0362  -8.9235  -8.3193  -8.3172  -7.8970  -7.8951  -7.8814
    -7.8405  -7.7661  -7.6083  -7.5754  -7.1396  -7.0809  -6.9551  -6.8848
    -6.8797  -6.8459  -6.5276  -6.5232  -6.2532  -5.3572  -5.3094  -5.1388
    -5.0610  -4.8119  -4.7991  -4.7521  -4.6079  -4.6010  -4.3569  -4.3240
    -3.6218  -3.1503  -3.0673  -2.5842  -2.0596  -2.0121  -1.4716  -1.4663
    -1.1667  -1.0933  -1.0522  -0.2798   0.5989   0.8677   1.0953   1.2143
     1.2647   1.3523   1.5950   1.6019   1.7611   1.9993

          k =-0.0000-0.1925 0.0000 ( 59226 PWs)   bands (ev):

   -73.2180 -73.0663 -45.1859 -44.5529 -44.5267 -44.4489 -44.4225 -44.3666
   -21.3095 -20.5272 -20.3453 -20.3387 -19.9789 -19.9748 -19.8044 -18.7224
   -18.7179 -18.3920 -18.3624 -18.3511 -18.2513 -18.2494 -18.0750 -18.0694
   -12.5073 -12.4947 -12.4036 -11.5770 -11.5732 -11.4252 -11.4111 -10.9221
   -10.9209  -9.9245  -9.9226  -9.6715  -9.3737  -9.3637  -9.2259  -9.2248
    -9.0371  -9.0368  -8.9240  -8.3189  -8.3172  -7.8974  -7.8926  -7.8675
    -7.8406  -7.7677  -7.6102  -7.6012  -7.1025  -7.0963  -6.9537  -6.8841
    -6.8819  -6.8543  -6.5263  -6.5238  -6.2537  -5.3328  -5.3251  -5.1391
    -5.0606  -4.8620  -4.7836  -4.7494  -4.5947  -4.5847  -4.3437  -4.3432
    -3.6225  -3.1506  -3.0672  -2.5841  -2.0591  -2.0119  -1.4720  -1.4666
    -1.1648  -1.0920  -1.0528  -0.2403   0.5508   0.8710   1.0357   1.1908
     1.2355   1.3896   1.5927   1.6180   1.7170   1.9966

          k = 0.5000-0.8660 0.0000 ( 59292 PWs)   bands (ev):

   -73.2180 -73.0663 -45.1860 -44.5529 -44.5267 -44.4489 -44.4224 -44.3666
   -21.0533 -21.0350 -20.4672 -20.4577 -19.4205 -19.4192 -19.4105 -19.4030
   -18.9926 -18.9799 -18.3270 -18.3207 -18.3126 -18.2986 -17.7910 -17.7823
   -12.0710 -12.0678 -12.0564 -12.0487 -11.8772 -11.8660 -11.3299 -11.3183
   -10.2323 -10.2266 -10.1313 -10.1287 -10.1233 -10.1221  -8.6093  -8.5494
    -8.5442  -8.5385  -8.5309  -8.5223  -7.8610  -7.8598  -7.8538  -7.8531
    -7.8179  -7.8174  -7.7817  -7.7451  -7.4903  -7.4776  -6.6088  -6.6016
    -6.3514  -6.3400  -6.2997  -6.2909  -6.1885  -6.1800  -5.7130  -5.6892
    -5.5455  -5.5333  -4.7485  -4.7239  -4.6903  -4.6662  -3.9006  -3.8597
    -3.6168  -3.1499  -3.0643  -2.5780  -2.0587  -2.0124  -1.4710  -1.4687
    -1.1759  -1.0963  -1.0509  -0.3855   0.5611   0.9566   1.0965   1.1278
     1.5202   1.5871   1.6029   1.6152   1.7561   1.8573

          k =-1.0000 0.0000 0.0000 ( 59292 PWs)   bands (ev):

   -73.2180 -73.0663 -45.1860 -44.5529 -44.5267 -44.4489 -44.4224 -44.3666
   -21.0712 -21.0144 -20.4676 -20.4617 -19.4244 -19.4164 -19.4041 -19.4027
   -19.0088 -18.9650 -18.3695 -18.3272 -18.2870 -18.2759 -17.7901 -17.7849
   -12.1051 -12.0698 -12.0387 -12.0275 -11.8736 -11.8696 -11.3455 -11.3039
   -10.2383 -10.2345 -10.1272 -10.1266 -10.1206 -10.1192  -8.6351  -8.5722
    -8.5530  -8.5209  -8.5133  -8.4872  -7.8687  -7.8663  -7.8570  -7.8535
    -7.8095  -7.8094  -7.7729  -7.7692  -7.5093  -7.4604  -6.6055  -6.6024
    -6.3451  -6.3374  -6.2924  -6.2905  -6.2042  -6.1668  -5.7311  -5.6743
    -5.5619  -5.5171  -4.8291  -4.7107  -4.6642  -4.6342  -3.8796  -3.8752
    -3.6199  -3.1505  -3.0664  -2.5776  -2.0586  -2.0113  -1.4725  -1.4697
    -1.1654  -1.0911  -1.0531  -0.2520   0.4041   0.9522   1.0861   1.1234
     1.1983   1.5190   1.5747   1.6282   1.6437   1.9053

 ------ SPIN DOWN ----------


          k = 0.1667 0.2887 0.0000 ( 59267 PWs)   bands (ev):

   -69.0928 -68.9308 -41.2548 -40.4118 -40.3816 -40.3806 -40.2991 -40.2681
   -21.2383 -20.6562 -20.6429 -20.0942 -20.0893 -19.5825 -19.5705 -19.0906
   -18.6905 -18.6798 -18.4472 -18.4430 -18.1852 -18.0772 -18.0689 -17.8406
   -12.4773 -12.1985 -12.1957 -11.8150 -11.8100 -11.6519 -11.1885 -11.1782
   -10.3842 -10.3607 -10.1122 -10.1055  -9.5836  -9.5794  -8.8218  -8.8159
    -8.8086  -8.7626  -8.7514  -8.5895  -8.1901  -8.0352  -7.9872  -7.8220
    -7.8200  -7.4317  -7.4281  -7.2521  -7.2446  -7.2026  -7.1978  -6.9528
    -6.9489  -6.5517  -6.5114  -6.1469  -6.1452  -5.8505  -5.4107  -5.2723
    -5.2537  -5.1927  -4.8890  -4.8855  -4.4853  -4.3361  -4.3243  -3.9603
    -1.5678   0.1087   0.2021   0.2780   0.5426   1.1023   1.1314   1.2610
     1.3026   1.4243   1.5004   1.5239   1.5715   1.6193   1.7784   1.8964
     2.0609   2.1094   2.2404   2.2694   2.3374   2.3820

          k = 0.1667-0.4811 0.0000 ( 59291 PWs)   bands (ev):

   -69.0928 -68.9308 -41.2549 -40.4118 -40.3817 -40.3806 -40.2990 -40.2681
   -21.1078 -20.9042 -20.7138 -20.1520 -19.7957 -19.4576 -19.3087 -19.1654
   -19.0057 -18.7697 -18.6313 -18.5361 -18.1382 -18.0822 -17.9127 -17.7148
   -12.3415 -12.1066 -12.0376 -11.8996 -11.6754 -11.6500 -11.5458 -10.9346
   -10.8827 -10.6161 -10.5160  -9.8526  -9.6863  -9.3286  -9.1038  -8.6410
    -8.6159  -8.5453  -8.3821  -8.3518  -8.1542  -8.0973  -8.0570  -8.0422
    -7.6811  -7.6162  -7.4873  -7.4668  -7.3325  -7.1632  -7.0607  -6.8395
    -6.6142  -6.3683  -6.1580  -6.1507  -5.9493  -5.9213  -5.7762  -5.7259
    -5.4441  -5.3760  -5.1831  -5.0272  -4.4191  -4.3360  -4.0690  -3.7483
    -1.5606   0.1063   0.2090   0.2812   0.5322   1.0222   1.0833   1.1623
     1.2070   1.3492   1.4694   1.5092   1.6584   1.8225   1.8660   2.1055
     2.1409   2.2014   2.2334   2.2535   2.3339   2.3552

          k = 0.1667-0.0962 0.0000 ( 59226 PWs)   bands (ev):

   -69.0928 -68.9308 -41.2548 -40.4118 -40.3816 -40.3806 -40.2991 -40.2681
   -21.3048 -20.5267 -20.3380 -20.3296 -19.9816 -19.9697 -19.7975 -18.7214
   -18.7116 -18.3643 -18.3610 -18.3465 -18.2583 -18.2532 -18.0698 -18.0619
   -12.4991 -12.4967 -12.4014 -11.5759 -11.5681 -11.4181 -11.4146 -10.9194
   -10.9162  -9.9216  -9.9196  -9.6683  -9.3678  -9.3652  -9.2221  -9.2208
    -9.0351  -9.0333  -8.9007  -8.3158  -8.3137  -7.8940  -7.8923  -7.8548
    -7.8361  -7.7634  -7.5888  -7.5641  -7.1098  -7.0698  -6.9520  -6.8818
    -6.8774  -6.8344  -6.5244  -6.5206  -6.2503  -5.3262  -5.2959  -5.1356
    -5.0578  -4.7842  -4.7808  -4.7346  -4.5926  -4.5871  -4.3349  -4.3136
    -1.5752   0.1105   0.1937   0.2754   0.5577   1.0132   1.1328   1.2742
     1.3483   1.4411   1.5231   1.5527   1.6387   1.7064   1.7993   1.9407
     2.0176   2.0774   2.0914   2.2825   2.3336   2.3716

          k =-0.5000-0.8660 0.0000 ( 59292 PWs)   bands (ev):

   -69.0928 -68.9308 -41.2549 -40.4119 -40.3816 -40.3807 -40.2991 -40.2681
   -21.0468 -21.0323 -20.4627 -20.4538 -19.4153 -19.4131 -19.4064 -19.3993
   -18.9863 -18.9775 -18.3181 -18.3152 -18.3087 -18.2976 -17.7859 -17.7782
   -12.0666 -12.0642 -12.0544 -12.0474 -11.8742 -11.8640 -11.3262 -11.3161
   -10.2286 -10.2243 -10.1278 -10.1255 -10.1206 -10.1193  -8.5717  -8.5445
    -8.5411  -8.5361  -8.5297  -8.5142  -7.8577  -7.8568  -7.8510  -7.8505
    -7.8147  -7.8123  -7.7613  -7.7338  -7.4865  -7.4760  -6.6050  -6.5993
    -6.3189  -6.3154  -6.2878  -6.2788  -6.1846  -6.1776  -5.6924  -5.6775
    -5.5410  -5.5317  -4.7118  -4.7022  -4.6790  -4.6629  -3.8692  -3.8491
    -1.5470   0.1082   0.2027   0.2777   0.3380   1.0477   1.0975   1.2181
     1.4424   1.4945   1.5375   1.5789   1.6164   1.7023   1.8065   1.9398
     1.9443   2.2183   2.2444   2.2634   2.3189   2.3704

          k =-0.1667 0.2887 0.0000 ( 59267 PWs)   bands (ev):

   -69.0928 -68.9308 -41.2548 -40.4118 -40.3816 -40.3806 -40.2991 -40.2681
   -21.2383 -20.6561 -20.6430 -20.0942 -20.0893 -19.5825 -19.5705 -19.0906
   -18.6904 -18.6799 -18.4473 -18.4430 -18.1852 -18.0772 -18.0689 -17.8406
   -12.4773 -12.1985 -12.1957 -11.8149 -11.8100 -11.6519 -11.1884 -11.1782
   -10.3842 -10.3607 -10.1122 -10.1055  -9.5835  -9.5794  -8.8217  -8.8158
    -8.8086  -8.7626  -8.7515  -8.5895  -8.1902  -8.0352  -7.9872  -7.8220
    -7.8200  -7.4317  -7.4281  -7.2521  -7.2446  -7.2025  -7.1978  -6.9529
    -6.9490  -6.5516  -6.5114  -6.1469  -6.1452  -5.8505  -5.4108  -5.2723
    -5.2538  -5.1926  -4.8890  -4.8854  -4.4854  -4.3361  -4.3243  -3.9603
    -1.5678   0.1087   0.2021   0.2780   0.5426   1.1024   1.1314   1.2610
     1.3026   1.4243   1.5004   1.5239   1.5714   1.6193   1.7784   1.8965
     2.0610   2.1093   2.2404   2.2695   2.3375   2.3816

          k = 0.3333 0.0000 0.0000 ( 59267 PWs)   bands (ev):

   -69.0928 -68.9308 -41.2549 -40.4118 -40.3816 -40.3806 -40.2991 -40.2681
   -21.2380 -20.6752 -20.6238 -20.0989 -20.0833 -19.6023 -19.5523 -19.0924
   -18.7029 -18.6633 -18.4530 -18.4385 -18.1818 -18.0960 -18.0555 -17.8398
   -12.4766 -12.2024 -12.1921 -11.8228 -11.8044 -11.6501 -11.2017 -11.1651
   -10.3837 -10.3604 -10.1220 -10.0964  -9.5879  -9.5739  -8.8249  -8.8161
    -8.8034  -8.7797  -8.7354  -8.5903  -8.1916  -8.0656  -7.9566  -7.8223
    -7.8180  -7.4358  -7.4235  -7.2645  -7.2286  -7.2101  -7.1902  -6.9572
    -6.9457  -6.5834  -6.4842  -6.1492  -6.1421  -5.8553  -5.4106  -5.2831
    -5.2346  -5.1931  -4.9051  -4.8714  -4.4796  -4.3591  -4.3098  -3.9595
    -1.5591   0.1121   0.1955   0.2740   0.4127   0.9966   1.1989   1.3682
     1.4342   1.4693   1.5086   1.5423   1.5831   1.6257   1.6841   1.9612
     2.0441   2.1603   2.2219   2.2817   2.3418   2.4549

          k =-0.1667-0.4811 0.0000 ( 59291 PWs)   bands (ev):

   -69.0928 -68.9308 -41.2549 -40.4118 -40.3817 -40.3806 -40.2990 -40.2681
   -21.1078 -20.9042 -20.7138 -20.1520 -19.7957 -19.4576 -19.3087 -19.1654
   -19.0057 -18.7697 -18.6313 -18.5361 -18.1382 -18.0822 -17.9127 -17.7148
   -12.3415 -12.1066 -12.0376 -11.8996 -11.6754 -11.6500 -11.5459 -10.9346
   -10.8827 -10.6161 -10.5159  -9.8526  -9.6863  -9.3286  -9.1039  -8.6410
    -8.6158  -8.5453  -8.3821  -8.3518  -8.1541  -8.0973  -8.0571  -8.0422
    -7.6811  -7.6162  -7.4873  -7.4669  -7.3325  -7.1632  -7.0607  -6.8395
    -6.6142  -6.3683  -6.1581  -6.1508  -5.9493  -5.9212  -5.7761  -5.7259
    -5.4441  -5.3760  -5.1831  -5.0273  -4.4191  -4.3360  -4.0690  -3.7483
    -1.5606   0.1063   0.2090   0.2812   0.5322   1.0222   1.0833   1.1623
     1.2070   1.3492   1.4694   1.5092   1.6584   1.8225   1.8660   2.1056
     2.1409   2.2015   2.2334   2.2535   2.3339   2.3552

          k = 0.5000-0.0962 0.0000 ( 59291 PWs)   bands (ev):

   -69.0928 -68.9308 -41.2548 -40.4118 -40.3817 -40.3807 -40.2991 -40.2681
   -21.1054 -20.9104 -20.7098 -20.1505 -19.7956 -19.4595 -19.3132 -19.1613
   -19.0067 -18.7707 -18.6227 -18.5410 -18.1286 -18.0954 -17.9105 -17.7144
   -12.3401 -12.1072 -12.0360 -11.9033 -11.6856 -11.6379 -11.5475 -10.9350
   -10.8807 -10.6145 -10.5183  -9.8507  -9.6868  -9.3293  -9.1033  -8.6350
    -8.6164  -8.5436  -8.3858  -8.3691  -8.1525  -8.0865  -8.0682  -8.0321
    -7.6777  -7.6167  -7.4865  -7.4679  -7.3284  -7.1644  -7.0613  -6.8390
    -6.6145  -6.3736  -6.1682  -6.1502  -5.9410  -5.9206  -5.7756  -5.7270
    -5.4451  -5.3776  -5.1669  -5.0358  -4.4037  -4.3550  -4.0674  -3.7481
    -1.5470   0.1084   0.2002   0.2750   0.3457   1.0380   1.0495   1.1797
     1.3283   1.4574   1.4909   1.5478   1.6899   1.8170   1.9767   2.0281
     2.1349   2.1880   2.2158   2.2900   2.3215   2.3841

          k =-0.3333-0.3849 0.0000 ( 59291 PWs)   bands (ev):

   -69.0928 -68.9308 -41.2549 -40.4118 -40.3817 -40.3806 -40.2991 -40.2681
   -21.1063 -20.9082 -20.7114 -20.1502 -19.7975 -19.4578 -19.3089 -19.1644
   -19.0090 -18.7692 -18.6239 -18.5405 -18.1304 -18.0931 -17.9106 -17.7146
   -12.3410 -12.1050 -12.0382 -11.9020 -11.6762 -11.6487 -11.5467 -10.9350
   -10.8806 -10.6140 -10.5187  -9.8512  -9.6868  -9.3290  -9.1042  -8.6369
    -8.6152  -8.5450  -8.3834  -8.3627  -8.1538  -8.0908  -8.0571  -8.0441
    -7.6780  -7.6154  -7.4922  -7.4626  -7.3276  -7.1645  -7.0618  -6.8441
    -6.6128  -6.3690  -6.1579  -6.1518  -5.9480  -5.9197  -5.7758  -5.7335
    -5.4449  -5.3740  -5.1682  -5.0356  -4.4062  -4.3523  -4.0672  -3.7482
    -1.5516   0.1067   0.2045   0.2788   0.3945   1.0298   1.1079   1.1819
     1.2424   1.3680   1.4831   1.5359   1.7156   1.9533   1.9742   2.0111
     2.0839   2.1640   2.2098   2.2535   2.3376   2.3694

          k = 0.5000 0.0962 0.0000 ( 59291 PWs)   bands (ev):

   -69.0928 -68.9308 -41.2548 -40.4118 -40.3817 -40.3807 -40.2991 -40.2681
   -21.1054 -20.9104 -20.7098 -20.1505 -19.7956 -19.4595 -19.3132 -19.1613
   -19.0067 -18.7707 -18.6227 -18.5410 -18.1286 -18.0954 -17.9105 -17.7144
   -12.3401 -12.1073 -12.0360 -11.9033 -11.6856 -11.6379 -11.5475 -10.9350
   -10.8807 -10.6145 -10.5183  -9.8507  -9.6868  -9.3293  -9.1033  -8.6350
    -8.6164  -8.5436  -8.3858  -8.3691  -8.1525  -8.0865  -8.0682  -8.0320
    -7.6778  -7.6166  -7.4866  -7.4679  -7.3284  -7.1645  -7.0613  -6.8390
    -6.6144  -6.3736  -6.1682  -6.1501  -5.9411  -5.9206  -5.7757  -5.7270
    -5.4452  -5.3776  -5.1669  -5.0358  -4.4037  -4.3549  -4.0674  -3.7481
    -1.5470   0.1084   0.2002   0.2750   0.3457   1.0380   1.0495   1.1798
     1.3283   1.4574   1.4910   1.5478   1.6899   1.8170   1.9767   2.0281
     2.1349   2.1880   2.2158   2.2900   2.3214   2.3843

          k =-0.3333 0.3849 0.0000 ( 59291 PWs)   bands (ev):

   -69.0928 -68.9308 -41.2549 -40.4118 -40.3817 -40.3806 -40.2991 -40.2681
   -21.1063 -20.9082 -20.7114 -20.1502 -19.7974 -19.4578 -19.3089 -19.1644
   -19.0090 -18.7692 -18.6239 -18.5405 -18.1304 -18.0931 -17.9106 -17.7146
   -12.3410 -12.1050 -12.0382 -11.9020 -11.6762 -11.6487 -11.5467 -10.9350
   -10.8806 -10.6140 -10.5187  -9.8512  -9.6868  -9.3290  -9.1042  -8.6369
    -8.6152  -8.5449  -8.3834  -8.3627  -8.1539  -8.0908  -8.0570  -8.0441
    -7.6779  -7.6154  -7.4922  -7.4626  -7.3276  -7.1644  -7.0619  -6.8441
    -6.6128  -6.3690  -6.1579  -6.1519  -5.9480  -5.9198  -5.7757  -5.7335
    -5.4448  -5.3740  -5.1682  -5.0356  -4.4062  -4.3523  -4.0671  -3.7482
    -1.5516   0.1067   0.2045   0.2788   0.3945   1.0298   1.1079   1.1818
     1.2424   1.3679   1.4831   1.5359   1.7157   1.9533   1.9742   2.0111
     2.0839   2.1641   2.2097   2.2534   2.3374   2.3700

          k =-0.1667-0.0962 0.0000 ( 59226 PWs)   bands (ev):

   -69.0928 -68.9308 -41.2548 -40.4118 -40.3816 -40.3806 -40.2991 -40.2681
   -21.3048 -20.5267 -20.3380 -20.3296 -19.9816 -19.9697 -19.7975 -18.7214
   -18.7116 -18.3643 -18.3610 -18.3465 -18.2583 -18.2532 -18.0698 -18.0619
   -12.4991 -12.4967 -12.4014 -11.5759 -11.5681 -11.4182 -11.4146 -10.9194
   -10.9162  -9.9217  -9.9197  -9.6682  -9.3678  -9.3652  -9.2221  -9.2208
    -9.0351  -9.0333  -8.9007  -8.3158  -8.3138  -7.8940  -7.8922  -7.8548
    -7.8360  -7.7635  -7.5888  -7.5641  -7.1098  -7.0698  -6.9521  -6.8818
    -6.8774  -6.8344  -6.5244  -6.5206  -6.2504  -5.3262  -5.2959  -5.1355
    -5.0579  -4.7842  -4.7808  -4.7347  -4.5926  -4.5871  -4.3349  -4.3136
    -1.5752   0.1105   0.1937   0.2754   0.5577   1.0132   1.1327   1.2742
     1.3484   1.4411   1.5232   1.5527   1.6387   1.7064   1.7993   1.9406
     2.0176   2.0775   2.0914   2.2825   2.3335   2.3737

          k =-0.0000-0.1925 0.0000 ( 59226 PWs)   bands (ev):

   -69.0928 -68.9308 -41.2548 -40.4118 -40.3816 -40.3806 -40.2991 -40.2681
   -21.3049 -20.5226 -20.3406 -20.3343 -19.9748 -19.9704 -19.8003 -18.7176
   -18.7126 -18.3835 -18.3578 -18.3462 -18.2489 -18.2457 -18.0705 -18.0651
   -12.5031 -12.4932 -12.4010 -11.5744 -11.5706 -11.4212 -11.4093 -10.9191
   -10.9179  -9.9219  -9.9194  -9.6683  -9.3710  -9.3610  -9.2224  -9.2213
    -9.0343  -9.0342  -8.9010  -8.3155  -8.3135  -7.8947  -7.8900  -7.8466
    -7.8341  -7.7648  -7.5907  -7.5818  -7.0824  -7.0818  -6.9508  -6.8813
    -6.8791  -6.8407  -6.5235  -6.5210  -6.2508  -5.3092  -5.3073  -5.1359
    -5.0575  -4.8218  -4.7672  -4.7326  -4.5849  -4.5735  -4.3294  -4.3241
    -1.5794   0.1088   0.1965   0.2766   0.6496   1.0834   1.1185   1.1822
     1.2679   1.4367   1.5180   1.5208   1.6042   1.7144   1.8211   1.9165
     1.9744   2.0567   2.1354   2.2888   2.3246   2.3570

          k = 0.5000-0.8660 0.0000 ( 59292 PWs)   bands (ev):

   -69.0928 -68.9308 -41.2549 -40.4119 -40.3816 -40.3807 -40.2991 -40.2681
   -21.0468 -21.0323 -20.4627 -20.4538 -19.4153 -19.4131 -19.4064 -19.3993
   -18.9862 -18.9775 -18.3180 -18.3152 -18.3087 -18.2977 -17.7859 -17.7782
   -12.0665 -12.0642 -12.0544 -12.0475 -11.8742 -11.8640 -11.3262 -11.3161
   -10.2287 -10.2243 -10.1278 -10.1255 -10.1206 -10.1193  -8.5717  -8.5444
    -8.5410  -8.5361  -8.5298  -8.5142  -7.8577  -7.8568  -7.8510  -7.8505
    -7.8147  -7.8124  -7.7613  -7.7338  -7.4865  -7.4761  -6.6050  -6.5992
    -6.3189  -6.3154  -6.2878  -6.2788  -6.1844  -6.1776  -5.6924  -5.6776
    -5.5411  -5.5318  -4.7117  -4.7021  -4.6790  -4.6629  -3.8692  -3.8491
    -1.5470   0.1082   0.2027   0.2777   0.3380   1.0477   1.0975   1.2182
     1.4424   1.4945   1.5375   1.5788   1.6163   1.7023   1.8065   1.9398
     1.9443   2.2183   2.2443   2.2635   2.3189   2.3704

          k =-1.0000 0.0000 0.0000 ( 59292 PWs)   bands (ev):

   -69.0928 -68.9308 -41.2549 -40.4119 -40.3816 -40.3807 -40.2990 -40.2681
   -21.0645 -21.0123 -20.4631 -20.4573 -19.4193 -19.4106 -19.4003 -19.3991
   -19.0017 -18.9631 -18.3590 -18.3216 -18.2844 -18.2754 -17.7853 -17.7801
   -12.0981 -12.0680 -12.0372 -12.0263 -11.8713 -11.8671 -11.3416 -11.3021
   -10.2348 -10.2304 -10.1239 -10.1235 -10.1181 -10.1170  -8.5969  -8.5675
    -8.5491  -8.5193  -8.5126  -8.4826  -7.8648  -7.8623  -7.8540  -7.8509
    -7.8062  -7.8059  -7.7558  -7.7497  -7.5050  -7.4592  -6.6029  -6.5994
    -6.3171  -6.3131  -6.2798  -6.2796  -6.1997  -6.1647  -5.7094  -5.6627
    -5.5569  -5.5158  -4.7799  -4.6924  -4.6548  -4.6330  -3.8618  -3.8569
    -1.5649   0.1074   0.2113   0.2827   0.6221   1.0218   1.0622   1.1437
     1.3935   1.4379   1.4668   1.4972   1.6219   1.6443   1.6735   1.8016
     2.0732   2.2561   2.2815   2.2817   2.3244   2.3711

     the Fermi energy is    -0.5011 ev

!    total energy              =   -1133.74716701 Ry

     total all-electron energy =     -6753.422870 Ry
     estimated scf accuracy    <       0.00000002 Ry
     smearing contrib. (-TS)   =      -0.00000000 Ry
     internal energy E=F+TS    =   -1133.74716701 Ry

     The total energy is F=E-TS. E is the sum of the following terms:
     one-electron contribution =   -3990.17763654 Ry
     hartree contribution      =    2023.06197160 Ry
     xc contribution           =    -186.12697592 Ry
     ewald contribution        =    1378.87478190 Ry
     DFT-D3 Dispersion         =      -0.12238011 Ry
     one-center paw contrib.   =    -359.25692795 Ry

     total magnetization       =    10.00 Bohr mag/cell
     absolute magnetization    =    10.02 Bohr mag/cell

     convergence has been achieved in  14 iterations

     Writing output data file ./mytmp/Crdimer0.11-0.4.save/
 
     init_run     :     18.47s CPU     19.44s WALL (       1 calls)
     electrons    :    474.87s CPU    510.24s WALL (       1 calls)

     Called by init_run:
     wfcinit      :     13.63s CPU     14.14s WALL (       1 calls)
     potinit      :      1.55s CPU      1.62s WALL (       1 calls)
     hinit0       :      1.57s CPU      1.70s WALL (       1 calls)

     Called by electrons:
     c_bands      :    378.63s CPU    404.71s WALL (      14 calls)
     sum_band     :     74.30s CPU     80.18s WALL (      14 calls)
     v_of_rho     :      4.58s CPU      4.93s WALL (      15 calls)
     newd         :      9.31s CPU     12.47s WALL (      15 calls)
     PAW_pot      :      7.38s CPU      7.43s WALL (      15 calls)
     mix_rho      :      0.97s CPU      1.00s WALL (      14 calls)

     Called by c_bands:
     init_us_2    :      5.06s CPU      5.14s WALL (     870 calls)
     cegterg      :    366.27s CPU    392.22s WALL (     420 calls)

     Called by *egterg:
     cdiaghg      :     23.83s CPU     38.53s WALL (    2745 calls)
     h_psi        :    236.81s CPU    246.86s WALL (    2775 calls)
     s_psi        :     26.62s CPU     26.79s WALL (    2775 calls)
     g_psi        :      0.69s CPU      0.71s WALL (    2325 calls)

     Called by h_psi:
     h_psi:calbec :     27.53s CPU     28.25s WALL (    2775 calls)
     vloc_psi     :    180.13s CPU    189.22s WALL (    2775 calls)
     add_vuspsi   :     27.08s CPU     27.29s WALL (    2775 calls)

     General routines
     calbec       :     36.84s CPU     37.78s WALL (    3195 calls)
     fft          :      4.01s CPU      4.60s WALL (     369 calls)
     ffts         :      0.11s CPU      0.12s WALL (      58 calls)
     fftw         :    187.39s CPU    196.89s WALL (  246074 calls)
     interpolate  :      0.40s CPU      0.44s WALL (      30 calls)
 
     Parallel routines
     fft_scatt_xy :     29.79s CPU     31.10s WALL (  246501 calls)
     fft_scatt_yz :     74.54s CPU     79.27s WALL (  246501 calls)
 
     PWSCF        :   8m15.32s CPU   8m53.78s WALL

 
   This run was terminated on:  11:48:17  31Mar2021            

=------------------------------------------------------------------------------=
   JOB DONE.
=------------------------------------------------------------------------------=
