
     Program PWSCF v.6.7MaX starts on 31Mar2021 at 14:13:55 

     This program is part of the open-source Quantum ESPRESSO suite
     for quantum simulation of materials; please cite
         "P. Giannozzi et al., J. Phys.:Condens. Matter 21 395502 (2009);
         "P. Giannozzi et al., J. Phys.:Condens. Matter 29 465901 (2017);
          URL http://www.quantum-espresso.org", 
     in publications or presentations arising from this work. More details at
     http://www.quantum-espresso.org/quote

     Parallel version (MPI), running on    48 processors

     MPI processes distributed on     1 nodes
     R & G space division:  proc/nbgrp/npool/nimage =      48
     Reading input from Crdimer0.14-0.2.scf.in

     Current dimensions of program PWSCF are:
     Max number of different atomic species (ntypx) = 10
     Max number of k-points (npk) =  40000
     Max angular momentum in pseudopotentials (lmaxx) =  3
     file N.pbe-n-kjpaw_psl.1.0.0.UPF: wavefunction(s)  2S renormalized
     file Cr.pbe-spn-kjpaw_psl.1.0.0.UPF: wavefunction(s)  3S 3P 3D renormalized
     file Cr.pbe-spn-kjpaw_psl.1.0.0.UPF: wavefunction(s)  3S 3P 3D renormalized

     --------------------------------------------
     Parameters for DFT-D3 Dispersion Correction:
     --------------------------------------------
       Reference C6 values for interpolation: 

         atom   Coordination number   C6
         B          0.000           214.36
         B          0.971           150.74
         B          1.944           106.23
         B          2.913            62.89
         B          4.586            56.06
         N          0.000            50.54
         N          0.994            44.25
         N          2.014            39.35
         N          2.990            31.16
         Cr1        0.000          1381.48
         Cr1        1.827           571.38
         Cr1       10.619           306.69
         Cr2        0.000          1381.48
         Cr2        1.827           571.38
         Cr2       10.619           306.69

       Values used:

         atom   Coordination number  R0_AB[au]  C6      C8
         B          3.338            3.039     62.89   2505.93
         B          3.335            3.039     62.89   2506.01
         B          3.343            3.039     62.89   2505.80
         B          3.336            3.039     62.89   2506.00
         B          3.380            3.039     62.86   2504.75
         B          3.335            3.039     62.89   2506.00
         N          3.134            2.478     31.22    688.69
         N          3.135            2.478     31.22    688.69
         N          3.152            2.478     31.21    688.54
         N          3.136            2.478     31.22    688.68
         N          3.145            2.478     31.21    688.60
         N          3.134            2.478     31.22    688.70
         N          3.142            2.478     31.21    688.62
         N          3.134            2.478     31.22    688.70
         N          3.135            2.478     31.22    688.69
         B          3.337            3.039     62.89   2505.97
         B          3.335            3.039     62.89   2506.01
         B          3.335            3.039     62.89   2506.00
         B          3.380            3.039     62.86   2504.75
         B          3.338            3.039     62.89   2505.93
         B          3.337            3.039     62.89   2505.97
         N          3.142            2.478     31.21    688.62
         B          3.335            3.039     62.89   2506.01
         B          3.338            3.039     62.89   2505.95
         B          3.341            3.039     62.89   2505.87
         N          3.134            2.478     31.22    688.70
         N          3.135            2.478     31.22    688.69
         N          3.134            2.478     31.22    688.69
         N          3.134            2.478     31.22    688.69
         N          3.152            2.478     31.21    688.54
         N          3.136            2.478     31.22    688.68
         B          3.341            3.039     62.89   2505.87
         Cr1        0.778            3.252   1258.19 116116.86
         Cr2        0.778            3.252   1258.19 116116.86

         Molecular C6 ( Ry / a.u.^6 ) =     77733.46


     Subspace diagonalization in iterative solution of the eigenvalue problem:
     one sub-group per band group will be used
     scalapack distributed-memory algorithm (size of sub-group:  6*  6 procs)

 
     Parallelization info
     --------------------
     sticks:   dense  smooth     PW     G-vecs:    dense   smooth      PW
     Min         235      98     26                36277     9874    1408
     Max         236      99     27                36282     9883    1425
     Sum       11311    4741   1285              1741401   474235   68095
 


     bravais-lattice index     =            4
     lattice parameter (alat)  =      18.9275  a.u.
     unit-cell volume          =   10553.3021 (a.u.)^3
     number of atoms/cell      =           34
     number of atomic types    =            4
     number of electrons       =       156.00
     number of Kohn-Sham states=           94
     kinetic-energy cutoff     =      48.0000  Ry
     charge density cutoff     =     457.0000  Ry
     scf convergence threshold =      1.0E-07
     mixing beta               =       0.5000
     number of iterations used =            8  plain     mixing
     Exchange-correlation= SLA  PW   PBX  PBC
                           (   1   4   3   4   0   0   0)

     celldm(1)=  18.927497  celldm(2)=   0.000000  celldm(3)=   1.797125
     celldm(4)=   0.000000  celldm(5)=   0.000000  celldm(6)=   0.000000

     crystal axes: (cart. coord. in units of alat)
               a(1) = (   1.000000   0.000000   0.000000 )  
               a(2) = (  -0.500000   0.866025   0.000000 )  
               a(3) = (   0.000000   0.000000   1.797125 )  

     reciprocal axes: (cart. coord. in units 2 pi/alat)
               b(1) = (  1.000000  0.577350  0.000000 )  
               b(2) = (  0.000000  1.154701  0.000000 )  
               b(3) = (  0.000000  0.000000  0.556444 )  


     PseudoPot. # 1 for B  read from file:
     /home/sf05/q-e-qe-6.7MaX-Release/pseudo/B.pbe-n-kjpaw_psl.1.0.0.UPF
     MD5 check sum: d9c678ba5d3b2fd7b74e61139c9288d8
     Pseudo is Projector augmented-wave + core cor, Zval =  3.0
     Generated using "atomic" code by A. Dal Corso  v.5.1.2
     Shape of augmentation charge: PSQ
     Using radial grid of 1059 points,  4 beta functions with: 
                l(1) =   0
                l(2) =   0
                l(3) =   1
                l(4) =   1
     Q(r) pseudized with 0 coefficients 


     PseudoPot. # 2 for N  read from file:
     /home/sf05/q-e-qe-6.7MaX-Release/pseudo/N.pbe-n-kjpaw_psl.1.0.0.UPF
     MD5 check sum: e0e4e94a9c4025c5b51bd7d8793849bd
     Pseudo is Projector augmented-wave + core cor, Zval =  5.0
     Generated using "atomic" code by A. Dal Corso  v.5.1.2
     Shape of augmentation charge: PSQ
     Using radial grid of 1085 points,  4 beta functions with: 
                l(1) =   0
                l(2) =   0
                l(3) =   1
                l(4) =   1
     Q(r) pseudized with 0 coefficients 


     PseudoPot. # 3 for Cr read from file:
     /home/sf05/q-e-qe-6.7MaX-Release/pseudo/Cr.pbe-spn-kjpaw_psl.1.0.0.UPF
     MD5 check sum: 198f1a2427a48552563eee314eba32ba
     Pseudo is Projector augmented-wave + core cor, Zval = 14.0
     Generated using &quot;atomic&quot; code by A. Dal Corso  v.6.3
     Shape of augmentation charge: PSQ
     Using radial grid of 1183 points,  6 beta functions with: 
                l(1) =   0
                l(2) =   0
                l(3) =   1
                l(4) =   1
                l(5) =   2
                l(6) =   2
     Q(r) pseudized with 0 coefficients 


     PseudoPot. # 4 for Cr read from file:
     /home/sf05/q-e-qe-6.7MaX-Release/pseudo/Cr.pbe-spn-kjpaw_psl.1.0.0.UPF
     MD5 check sum: 198f1a2427a48552563eee314eba32ba
     Pseudo is Projector augmented-wave + core cor, Zval = 14.0
     Generated using &quot;atomic&quot; code by A. Dal Corso  v.6.3
     Shape of augmentation charge: PSQ
     Using radial grid of 1183 points,  6 beta functions with: 
                l(1) =   0
                l(2) =   0
                l(3) =   1
                l(4) =   1
                l(5) =   2
                l(6) =   2
     Q(r) pseudized with 0 coefficients 


     atomic species   valence    mass     pseudopotential
        B              3.00    10.81100     B ( 1.00)
        N              5.00    14.00674     N ( 1.00)
        Cr1           14.00    51.99610     Cr( 1.00)
        Cr2           14.00    51.99610     Cr( 1.00)

     Starting magnetic structure 
     atomic species   magnetization
        B            0.000
        N            0.000
        Cr1          1.000
        Cr2          1.000

     No symmetry found



   Cartesian axes

     site n.     atom                  positions (alat units)
         1           B   tau(   1) = (  -0.1250000   0.2165064   0.8985623  )
         2           B   tau(   2) = (   0.3750000   0.6495191   0.8985623  )
         3           B   tau(   3) = (   0.2500000   0.0000000   0.8985623  )
         4           B   tau(   4) = (   0.7500000   0.0000000   0.8985623  )
         5           B   tau(   5) = (   0.1250000   0.2165064   0.8985623  )
         6           B   tau(   6) = (  -0.3750000   0.6495191   0.8985623  )
         7           N   tau(   7) = (   0.7500005   0.2886748   0.8985623  )
         8           N   tau(   8) = (   0.3750005   0.5051812   0.8985623  )
         9           N   tau(   9) = (   0.3750005   0.0721685   0.8985623  )
        10           N   tau(  10) = (   0.6250005   0.0721685   0.8985623  )
        11           N   tau(  11) = (   0.2500005   0.2886748   0.8985623  )
        12           N   tau(  12) = (   0.6250005   0.5051812   0.8985623  )
        13           N   tau(  13) = (   0.0000005   0.2886748   0.8985623  )
        14           N   tau(  14) = (   0.2500005   0.7216875   0.8985623  )
        15           N   tau(  15) = (  -0.2499995   0.7216875   0.8985623  )
        16           B   tau(  16) = (   0.0000000   0.4330127   0.8985623  )
        17           B   tau(  17) = (   0.1250000   0.6495191   0.8985623  )
        18           B   tau(  18) = (  -0.1250000   0.6495191   0.8985623  )
        19           B   tau(  19) = (   0.3750000   0.2165064   0.8985623  )
        20           B   tau(  20) = (   0.6250000   0.2165064   0.8985623  )
        21           B   tau(  21) = (   0.5000000   0.4330127   0.8985623  )
        22           N   tau(  22) = (   0.5000005   0.2886748   0.8985623  )
        23           B   tau(  23) = (  -0.2500000   0.4330127   0.8985623  )
        24           B   tau(  24) = (   0.2500000   0.4330127   0.8985623  )
        25           B   tau(  25) = (   0.5000000   0.0000000   0.8985623  )
        26           N   tau(  26) = (  -0.1249995   0.5051812   0.8985623  )
        27           N   tau(  27) = (   0.1250005   0.5051812   0.8985623  )
        28           N   tau(  28) = (   0.0000005   0.7216875   0.8985623  )
        29           N   tau(  29) = (   0.5000005   0.7216875   0.8985623  )
        30           N   tau(  30) = (   0.1250005   0.0721685   0.8985623  )
        31           N   tau(  31) = (   0.8750005   0.0721685   0.8985623  )
        32           B   tau(  32) = (   0.0000000   0.0000000   0.8985623  )
        33           Cr1 tau(  33) = (   0.3900000   0.1732051   1.2040735  )
        34           Cr2 tau(  34) = (   0.1100000   0.1732051   1.2040735  )

     number of k points=    15  Gaussian smearing, width (Ry)=  0.0000
                       cart. coord. in units 2pi/alat
        k(    1) = (   0.1666667   0.2886751   0.0000000), wk =   0.0740741
        k(    2) = (   0.1666667  -0.4811252   0.0000000), wk =   0.0740741
        k(    3) = (   0.1666667  -0.0962250   0.0000000), wk =   0.0740741
        k(    4) = (  -0.5000000  -0.8660254   0.0000000), wk =   0.0370370
        k(    5) = (  -0.1666667   0.2886751   0.0000000), wk =   0.0740741
        k(    6) = (   0.3333333   0.0000000   0.0000000), wk =   0.0740741
        k(    7) = (  -0.1666667  -0.4811252   0.0000000), wk =   0.0740741
        k(    8) = (   0.5000000  -0.0962250   0.0000000), wk =   0.0740741
        k(    9) = (  -0.3333333  -0.3849002   0.0000000), wk =   0.0740741
        k(   10) = (   0.5000000   0.0962250   0.0000000), wk =   0.0740741
        k(   11) = (  -0.3333333   0.3849002   0.0000000), wk =   0.0740741
        k(   12) = (  -0.1666667  -0.0962250   0.0000000), wk =   0.0740741
        k(   13) = (  -0.0000000  -0.1924501   0.0000000), wk =   0.0740741
        k(   14) = (   0.5000000  -0.8660254   0.0000000), wk =   0.0370370
        k(   15) = (  -1.0000000   0.0000000   0.0000000), wk =   0.0370370

     Dense  grid:  1741401 G-vectors     FFT dimensions: ( 135, 135, 240)

     Smooth grid:   474235 G-vectors     FFT dimensions: (  90,  90, 160)

     Estimated max dynamical RAM per process >     218.62 MB

     Estimated total dynamical RAM >      10.25 GB
     Generating pointlists ...
     new r_m :   0.0595 (alat units)  1.1269 (a.u.) for type    1
     new r_m :   0.0595 (alat units)  1.1269 (a.u.) for type    2
     new r_m :   0.1155 (alat units)  2.1861 (a.u.) for type    3
     new r_m :   0.1155 (alat units)  2.1861 (a.u.) for type    4

     Initial potential from superposition of free atoms

     starting charge  155.99382, renormalised to  156.00000

     negative rho (up, down):  6.704E-03 4.655E-04
     Starting wfcs are  148 randomized atomic wfcs
     Checking if some PAW data can be deallocated... 

     total cpu time spent up to now is       20.4 secs

     Self-consistent Calculation

     iteration #  1     ecut=    48.00 Ry     beta= 0.50
     Davidson diagonalization with overlap
     ethr =  1.00E-02,  avg # of iterations =  2.8

     negative rho (up, down):  4.890E-03 2.898E-03

     total cpu time spent up to now is       64.4 secs

     total energy              =   -1130.72848845 Ry
     estimated scf accuracy    <      11.37902166 Ry

     total magnetization       =    12.00 Bohr mag/cell
     absolute magnetization    =    12.12 Bohr mag/cell

     iteration #  2     ecut=    48.00 Ry     beta= 0.50
     Davidson diagonalization with overlap
     ethr =  7.29E-03,  avg # of iterations =  2.8

     negative rho (up, down):  8.415E-03 7.547E-03

     total cpu time spent up to now is      105.4 secs

     total energy              =   -1132.99545078 Ry
     estimated scf accuracy    <       3.59536894 Ry

     total magnetization       =    10.00 Bohr mag/cell
     absolute magnetization    =    10.11 Bohr mag/cell

     iteration #  3     ecut=    48.00 Ry     beta= 0.50
     Davidson diagonalization with overlap
     ethr =  2.30E-03,  avg # of iterations =  7.0

     negative rho (up, down):  3.758E-03 3.518E-03

     total cpu time spent up to now is      146.8 secs

     total energy              =   -1133.57585163 Ry
     estimated scf accuracy    <       0.78568071 Ry

     total magnetization       =    11.26 Bohr mag/cell
     absolute magnetization    =    11.32 Bohr mag/cell

     iteration #  4     ecut=    48.00 Ry     beta= 0.50
     Davidson diagonalization with overlap
     ethr =  5.04E-04,  avg # of iterations =  6.4

     negative rho (up, down):  7.286E-03 7.786E-03

     total cpu time spent up to now is      186.9 secs

     total energy              =   -1133.76450075 Ry
     estimated scf accuracy    <       0.53940688 Ry

     total magnetization       =    10.00 Bohr mag/cell
     absolute magnetization    =    10.01 Bohr mag/cell

     iteration #  5     ecut=    48.00 Ry     beta= 0.50
     Davidson diagonalization with overlap
     ethr =  3.46E-04,  avg # of iterations =  6.1

     negative rho (up, down):  4.757E-03 4.416E-03

     total cpu time spent up to now is      228.9 secs

     total energy              =   -1133.81189393 Ry
     estimated scf accuracy    <       0.08302098 Ry

     total magnetization       =    10.00 Bohr mag/cell
     absolute magnetization    =    10.02 Bohr mag/cell

     iteration #  6     ecut=    48.00 Ry     beta= 0.50
     Davidson diagonalization with overlap
     ethr =  5.32E-05,  avg # of iterations =  8.7

     negative rho (up, down):  3.715E-03 3.955E-03

     total cpu time spent up to now is      274.3 secs

     total energy              =   -1133.82241309 Ry
     estimated scf accuracy    <       0.01837715 Ry

     total magnetization       =    10.00 Bohr mag/cell
     absolute magnetization    =    10.02 Bohr mag/cell

     iteration #  7     ecut=    48.00 Ry     beta= 0.50
     Davidson diagonalization with overlap
     ethr =  1.18E-05,  avg # of iterations =  7.3

     negative rho (up, down):  3.313E-03 3.776E-03

     total cpu time spent up to now is      316.6 secs

     total energy              =   -1133.82635648 Ry
     estimated scf accuracy    <       0.00588090 Ry

     total magnetization       =    10.00 Bohr mag/cell
     absolute magnetization    =    10.01 Bohr mag/cell

     iteration #  8     ecut=    48.00 Ry     beta= 0.50
     Davidson diagonalization with overlap
     ethr =  3.77E-06,  avg # of iterations =  5.6

     negative rho (up, down):  3.209E-03 3.768E-03

     total cpu time spent up to now is      354.8 secs

     total energy              =   -1133.82740074 Ry
     estimated scf accuracy    <       0.00048384 Ry

     total magnetization       =    10.00 Bohr mag/cell
     absolute magnetization    =    10.01 Bohr mag/cell

     iteration #  9     ecut=    48.00 Ry     beta= 0.50
     Davidson diagonalization with overlap
     ethr =  3.10E-07,  avg # of iterations =  5.7

     negative rho (up, down):  3.149E-03 3.757E-03

     total cpu time spent up to now is      395.6 secs

     total energy              =   -1133.82758273 Ry
     estimated scf accuracy    <       0.00009536 Ry

     total magnetization       =    10.00 Bohr mag/cell
     absolute magnetization    =    10.01 Bohr mag/cell

     iteration # 10     ecut=    48.00 Ry     beta= 0.50
     Davidson diagonalization with overlap
     ethr =  6.11E-08,  avg # of iterations =  3.3

     negative rho (up, down):  3.138E-03 3.774E-03

     total cpu time spent up to now is      435.6 secs

     total energy              =   -1133.82764420 Ry
     estimated scf accuracy    <       0.00001396 Ry

     total magnetization       =    10.00 Bohr mag/cell
     absolute magnetization    =    10.01 Bohr mag/cell

     iteration # 11     ecut=    48.00 Ry     beta= 0.50
     Davidson diagonalization with overlap
     ethr =  8.95E-09,  avg # of iterations =  5.0

     negative rho (up, down):  3.129E-03 3.784E-03

     total cpu time spent up to now is      474.8 secs

     total energy              =   -1133.82766246 Ry
     estimated scf accuracy    <       0.00000530 Ry

     total magnetization       =    10.00 Bohr mag/cell
     absolute magnetization    =    10.01 Bohr mag/cell

     iteration # 12     ecut=    48.00 Ry     beta= 0.50
     Davidson diagonalization with overlap
     ethr =  3.40E-09,  avg # of iterations =  4.2

     negative rho (up, down):  3.123E-03 3.791E-03

     total cpu time spent up to now is      510.8 secs

     total energy              =   -1133.82766744 Ry
     estimated scf accuracy    <       0.00000101 Ry

     total magnetization       =    10.00 Bohr mag/cell
     absolute magnetization    =    10.01 Bohr mag/cell

     iteration # 13     ecut=    48.00 Ry     beta= 0.50
     Davidson diagonalization with overlap
     ethr =  6.49E-10,  avg # of iterations =  4.8

     negative rho (up, down):  3.120E-03 3.794E-03

     total cpu time spent up to now is      548.5 secs

     total energy              =   -1133.82766920 Ry
     estimated scf accuracy    <       0.00000018 Ry

     total magnetization       =    10.00 Bohr mag/cell
     absolute magnetization    =    10.01 Bohr mag/cell

     iteration # 14     ecut=    48.00 Ry     beta= 0.50
     Davidson diagonalization with overlap
     ethr =  1.18E-10,  avg # of iterations =  4.9

     negative rho (up, down):  3.118E-03 3.794E-03
 
     Magnetic moment per site:
     atom:    1    charge:    0.8809    magn:    0.0003    constr:    0.0000
     atom:    2    charge:    0.8803    magn:    0.0001    constr:    0.0000
     atom:    3    charge:    0.8795    magn:    0.0007    constr:    0.0000
     atom:    4    charge:    0.8806    magn:    0.0002    constr:    0.0000
     atom:    5    charge:    0.8806    magn:    0.0002    constr:    0.0000
     atom:    6    charge:    0.8802    magn:    0.0001    constr:    0.0000
     atom:    7    charge:    2.8610    magn:    0.0001    constr:    0.0000
     atom:    8    charge:    2.8608    magn:    0.0005    constr:    0.0000
     atom:    9    charge:    2.8607    magn:    0.0073    constr:    0.0000
     atom:   10    charge:    2.8609    magn:    0.0011    constr:    0.0000
     atom:   11    charge:    2.8604    magn:    0.0063    constr:    0.0000
     atom:   12    charge:    2.8610    magn:    0.0001    constr:    0.0000
     atom:   13    charge:    2.8597    magn:    0.0043    constr:    0.0000
     atom:   14    charge:    2.8599    magn:    0.0003    constr:    0.0000
     atom:   15    charge:    2.8598    magn:    0.0004    constr:    0.0000
     atom:   16    charge:    0.8800    magn:    0.0005    constr:    0.0000
     atom:   17    charge:    0.8800    magn:    0.0001    constr:    0.0000
     atom:   18    charge:    0.8799    magn:    0.0001    constr:    0.0000
     atom:   19    charge:    0.8800    magn:    0.0002    constr:    0.0000
     atom:   20    charge:    0.8803    magn:    0.0003    constr:    0.0000
     atom:   21    charge:    0.8798    magn:    0.0005    constr:    0.0000
     atom:   22    charge:    2.8610    magn:    0.0043    constr:    0.0000
     atom:   23    charge:    0.8801    magn:    0.0002    constr:    0.0000
     atom:   24    charge:    0.8796    magn:    0.0004    constr:    0.0000
     atom:   25    charge:    0.8802    magn:    0.0003    constr:    0.0000
     atom:   26    charge:    2.8598    magn:    0.0001    constr:    0.0000
     atom:   27    charge:    2.8597    magn:    0.0005    constr:    0.0000
     atom:   28    charge:    2.8597    magn:    0.0005    constr:    0.0000
     atom:   29    charge:    2.8596    magn:    0.0005    constr:    0.0000
     atom:   30    charge:    2.8594    magn:    0.0073    constr:    0.0000
     atom:   31    charge:    2.8596    magn:    0.0011    constr:    0.0000
     atom:   32    charge:    0.8804    magn:    0.0003    constr:    0.0000
     atom:   33    charge:   12.4872    magn:    4.2144    constr:    0.0000
     atom:   34    charge:   12.4872    magn:    4.2144    constr:    0.0000

     total cpu time spent up to now is      587.5 secs

     End of self-consistent calculation

 ------ SPIN UP ------------


          k = 0.1667 0.2887 0.0000 ( 59267 PWs)   bands (ev):

   -72.8943 -72.8849 -44.4490 -44.3589 -44.2926 -44.2837 -44.2710 -44.2620
   -21.2411 -20.6554 -20.6497 -20.1007 -20.0889 -19.5824 -19.5768 -19.0939
   -18.6916 -18.6855 -18.4538 -18.4432 -18.1890 -18.0802 -18.0728 -17.8441
   -12.4784 -12.2022 -12.1951 -11.8161 -11.8118 -11.6529 -11.1866 -11.1832
   -10.3864 -10.3624 -10.1126 -10.1094  -9.5836  -9.5825  -8.8343  -8.8191
    -8.8158  -8.7616  -8.7557  -8.5909  -8.1916  -8.0476  -8.0103  -7.8240
    -7.8208  -7.4328  -7.4317  -7.2778  -7.2537  -7.2029  -7.2002  -6.9570
    -6.9478  -6.5617  -6.5330  -6.1484  -6.1469  -5.8670  -5.4131  -5.2918
    -5.2689  -5.1945  -4.9105  -4.8923  -4.5017  -4.3516  -4.3358  -3.9746
    -2.9100  -2.0659  -2.0415  -1.8571  -1.6481  -1.6229  -1.4980  -1.4778
    -1.3772  -1.3584  -1.3192  -0.7125   0.6860   0.9239   1.0084   1.1812
     1.2904   1.4714   1.5224   1.5760   1.6092   1.7998

          k = 0.1667-0.4811 0.0000 ( 59291 PWs)   bands (ev):

   -72.8943 -72.8849 -44.4490 -44.3589 -44.2926 -44.2837 -44.2710 -44.2620
   -21.1105 -20.9069 -20.7172 -20.1551 -19.7987 -19.4611 -19.3112 -19.1691
   -19.0088 -18.7735 -18.6346 -18.5393 -18.1426 -18.0848 -17.9166 -17.7183
   -12.3424 -12.1076 -12.0392 -11.9011 -11.6749 -11.6533 -11.5473 -10.9368
   -10.8845 -10.6182 -10.5180  -9.8547  -9.6878  -9.3308  -9.1054  -8.6627
    -8.6172  -8.5473  -8.3837  -8.3631  -8.1559  -8.1182  -8.0575  -8.0443
    -7.6823  -7.6177  -7.4884  -7.4686  -7.3516  -7.1655  -7.0624  -6.8556
    -6.6166  -6.3847  -6.1727  -6.1524  -5.9669  -5.9238  -5.7778  -5.7413
    -5.4458  -5.3932  -5.2045  -5.0370  -4.4392  -4.3433  -4.0839  -3.7619
    -2.9072  -2.0657  -2.0413  -1.8538  -1.6473  -1.6226  -1.4999  -1.4790
    -1.3783  -1.3579  -1.3202  -0.7163   0.5930   0.9232   1.0070   1.1088
     1.2343   1.2826   1.3866   1.8437   1.9184   2.1257

          k = 0.1667-0.0962 0.0000 ( 59226 PWs)   bands (ev):

   -72.8943 -72.8849 -44.4490 -44.3589 -44.2926 -44.2836 -44.2710 -44.2620
   -21.3076 -20.5296 -20.3407 -20.3329 -19.9829 -19.9747 -19.8006 -18.7237
   -18.7161 -18.3707 -18.3606 -18.3500 -18.2658 -18.2540 -18.0727 -18.0655
   -12.5029 -12.4957 -12.4028 -11.5759 -11.5704 -11.4230 -11.4130 -10.9208
   -10.9181  -9.9244  -9.9204  -9.6702  -9.3713  -9.3647  -9.2255  -9.2223
    -9.0370  -9.0346  -8.9186  -8.3189  -8.3155  -7.8962  -7.8933  -7.8757
    -7.8393  -7.7647  -7.6056  -7.5763  -7.1319  -7.0861  -6.9535  -6.8824
    -6.8799  -6.8470  -6.5258  -6.5224  -6.2519  -5.3453  -5.3118  -5.1376
    -5.0597  -4.8051  -4.7922  -4.7451  -4.6171  -4.5951  -4.3496  -4.3264
    -2.9133  -2.0662  -2.0417  -1.8604  -1.6501  -1.6231  -1.4964  -1.4765
    -1.3762  -1.3589  -1.3183  -0.7085   0.8156   0.9001   0.9531   1.1964
     1.2578   1.3440   1.5864   1.5960   1.7072   1.9548

          k =-0.5000-0.8660 0.0000 ( 59292 PWs)   bands (ev):

   -72.8943 -72.8849 -44.4490 -44.3590 -44.2926 -44.2837 -44.2710 -44.2620
   -21.0451 -21.0397 -20.4649 -20.4576 -19.4232 -19.4122 -19.4100 -19.4017
   -18.9875 -18.9827 -18.3195 -18.3178 -18.3132 -18.3031 -17.7891 -17.7822
   -12.0658 -12.0611 -12.0597 -12.0518 -11.8729 -11.8672 -11.3245 -11.3214
   -10.2304 -10.2256 -10.1297 -10.1270 -10.1253 -10.1199  -8.5854  -8.5448
    -8.5417  -8.5393  -8.5378  -8.5325  -7.8585  -7.8574  -7.8538  -7.8523
    -7.8206  -7.8136  -7.7770  -7.7475  -7.4861  -7.4791  -6.6061  -6.6012
    -6.3580  -6.3218  -6.3020  -6.2913  -6.1862  -6.1802  -5.7068  -5.6921
    -5.5407  -5.5355  -4.7200  -4.7086  -4.7054  -4.6819  -3.8826  -3.8630
    -2.8960  -2.0638  -2.0397  -1.8549  -1.6477  -1.6228  -1.4993  -1.4805
    -1.3853  -1.3623  -1.3225  -0.8358   0.7826   1.0467   1.0901   1.1752
     1.3478   1.5799   1.5881   1.6116   1.6834   1.7747

          k =-0.1667 0.2887 0.0000 ( 59267 PWs)   bands (ev):

   -72.8943 -72.8849 -44.4490 -44.3589 -44.2926 -44.2837 -44.2710 -44.2620
   -21.2411 -20.6554 -20.6497 -20.1007 -20.0889 -19.5825 -19.5768 -19.0939
   -18.6916 -18.6854 -18.4538 -18.4432 -18.1890 -18.0802 -18.0728 -17.8441
   -12.4784 -12.2022 -12.1951 -11.8161 -11.8118 -11.6529 -11.1866 -11.1832
   -10.3864 -10.3624 -10.1126 -10.1094  -9.5836  -9.5825  -8.8343  -8.8190
    -8.8158  -8.7616  -8.7557  -8.5909  -8.1917  -8.0476  -8.0104  -7.8240
    -7.8207  -7.4329  -7.4317  -7.2778  -7.2538  -7.2029  -7.2002  -6.9571
    -6.9479  -6.5617  -6.5330  -6.1484  -6.1469  -5.8670  -5.4132  -5.2917
    -5.2689  -5.1944  -4.9105  -4.8923  -4.5017  -4.3516  -4.3358  -3.9746
    -2.9100  -2.0659  -2.0415  -1.8571  -1.6481  -1.6229  -1.4980  -1.4778
    -1.3772  -1.3584  -1.3192  -0.7125   0.6860   0.9239   1.0084   1.1813
     1.2903   1.4714   1.5224   1.5760   1.6092   1.8000

          k = 0.3333 0.0000 0.0000 ( 59267 PWs)   bands (ev):

   -72.8943 -72.8849 -44.4490 -44.3589 -44.2926 -44.2836 -44.2710 -44.2620
   -21.2407 -20.6784 -20.6266 -20.0974 -20.0909 -19.6059 -19.5551 -19.0956
   -18.7066 -18.6661 -18.4526 -18.4462 -18.1847 -18.1011 -18.0579 -17.8434
   -12.4783 -12.1995 -12.1974 -11.8228 -11.8071 -11.6509 -11.2037 -11.1669
   -10.3851 -10.3626 -10.1237 -10.0984  -9.5898  -9.5754  -8.8414  -8.8174
    -8.8090  -8.7802  -8.7372  -8.5920  -8.1931  -8.0959  -7.9617  -7.8226
    -7.8204  -7.4388  -7.4253  -7.2830  -7.2429  -7.2117  -7.1914  -6.9551
    -6.9508  -6.6131  -6.4895  -6.1509  -6.1437  -5.8732  -5.4127  -5.2976
    -5.2518  -5.1950  -4.9163  -4.8900  -4.4916  -4.3760  -4.3243  -3.9733
    -2.9030  -2.0645  -2.0403  -1.8580  -1.6496  -1.6230  -1.4972  -1.4785
    -1.3816  -1.3614  -1.3207  -0.7956   0.8458   0.9755   1.1469   1.2536
     1.2715   1.4473   1.5374   1.5605   1.6056   1.7974

          k =-0.1667-0.4811 0.0000 ( 59291 PWs)   bands (ev):

   -72.8943 -72.8849 -44.4490 -44.3589 -44.2926 -44.2837 -44.2710 -44.2620
   -21.1105 -20.9069 -20.7172 -20.1551 -19.7987 -19.4611 -19.3112 -19.1691
   -19.0089 -18.7735 -18.6346 -18.5393 -18.1426 -18.0848 -17.9166 -17.7183
   -12.3424 -12.1076 -12.0392 -11.9011 -11.6749 -11.6533 -11.5473 -10.9368
   -10.8845 -10.6182 -10.5180  -9.8546  -9.6878  -9.3308  -9.1055  -8.6627
    -8.6172  -8.5473  -8.3837  -8.3631  -8.1558  -8.1182  -8.0575  -8.0443
    -7.6823  -7.6178  -7.4884  -7.4686  -7.3516  -7.1654  -7.0623  -6.8556
    -6.6166  -6.3848  -6.1727  -6.1524  -5.9669  -5.9238  -5.7778  -5.7413
    -5.4459  -5.3932  -5.2045  -5.0371  -4.4392  -4.3433  -4.0839  -3.7619
    -2.9072  -2.0657  -2.0413  -1.8538  -1.6473  -1.6226  -1.4999  -1.4790
    -1.3783  -1.3579  -1.3202  -0.7163   0.5930   0.9232   1.0070   1.1088
     1.2343   1.2826   1.3866   1.8437   1.9185   2.1276

          k = 0.5000-0.0962 0.0000 ( 59291 PWs)   bands (ev):

   -72.8943 -72.8849 -44.4490 -44.3590 -44.2926 -44.2837 -44.2710 -44.2620
   -21.1080 -20.9136 -20.7128 -20.1534 -19.7989 -19.4626 -19.3166 -19.1646
   -19.0097 -18.7740 -18.6257 -18.5449 -18.1313 -18.1000 -17.9139 -17.7181
   -12.3417 -12.1078 -12.0374 -11.9047 -11.6859 -11.6399 -11.5495 -10.9369
   -10.8826 -10.6167 -10.5201  -9.8524  -9.6885  -9.3318  -9.1049  -8.6529
    -8.6175  -8.5456  -8.3940  -8.3860  -8.1540  -8.0991  -8.0693  -8.0338
    -7.6791  -7.6184  -7.4875  -7.4697  -7.3449  -7.1667  -7.0628  -6.8556
    -6.6168  -6.3942  -6.1892  -6.1517  -5.9526  -5.9229  -5.7772  -5.7424
    -5.4471  -5.3928  -5.1818  -5.0521  -4.4151  -4.3725  -4.0811  -3.7617
    -2.8962  -2.0638  -2.0397  -1.8549  -1.6483  -1.6228  -1.4994  -1.4804
    -1.3852  -1.3624  -1.3226  -0.8355   0.7719   1.0226   1.0803   1.1887
     1.2878   1.3418   1.5110   1.7569   1.8455   1.9048

          k =-0.3333-0.3849 0.0000 ( 59291 PWs)   bands (ev):

   -72.8943 -72.8849 -44.4490 -44.3589 -44.2926 -44.2837 -44.2710 -44.2620
   -21.1089 -20.9112 -20.7144 -20.1533 -19.8006 -19.4610 -19.3122 -19.1676
   -19.0123 -18.7725 -18.6270 -18.5440 -18.1336 -18.0972 -17.9141 -17.7182
   -12.3420 -12.1064 -12.0393 -11.9039 -11.6757 -11.6512 -11.5486 -10.9368
   -10.8822 -10.6160 -10.5211  -9.8533  -9.6886  -9.3310  -9.1055  -8.6559
    -8.6166  -8.5477  -8.3849  -8.3819  -8.1556  -8.1063  -8.0575  -8.0462
    -7.6794  -7.6167  -7.4940  -7.4641  -7.3438  -7.1669  -7.0632  -6.8635
    -6.6150  -6.3853  -6.1737  -6.1536  -5.9651  -5.9220  -5.7776  -5.7520
    -5.4468  -5.3880  -5.1816  -5.0523  -4.4188  -4.3694  -4.0802  -3.7619
    -2.8998  -2.0645  -2.0404  -1.8545  -1.6475  -1.6227  -1.4997  -1.4799
    -1.3829  -1.3609  -1.3217  -0.7992   0.7062   1.0236   1.0899   1.1437
     1.2036   1.3829   1.4042   1.8074   1.9157   1.9259

          k = 0.5000 0.0962 0.0000 ( 59291 PWs)   bands (ev):

   -72.8943 -72.8849 -44.4490 -44.3590 -44.2926 -44.2837 -44.2710 -44.2620
   -21.1080 -20.9136 -20.7128 -20.1534 -19.7989 -19.4626 -19.3166 -19.1646
   -19.0097 -18.7740 -18.6257 -18.5449 -18.1313 -18.1000 -17.9139 -17.7181
   -12.3417 -12.1078 -12.0374 -11.9047 -11.6859 -11.6399 -11.5495 -10.9369
   -10.8826 -10.6167 -10.5202  -9.8524  -9.6885  -9.3318  -9.1049  -8.6529
    -8.6175  -8.5457  -8.3940  -8.3860  -8.1540  -8.0991  -8.0693  -8.0337
    -7.6791  -7.6183  -7.4876  -7.4698  -7.3449  -7.1668  -7.0627  -6.8556
    -6.6167  -6.3942  -6.1892  -6.1516  -5.9526  -5.9228  -5.7773  -5.7424
    -5.4471  -5.3928  -5.1818  -5.0520  -4.4151  -4.3725  -4.0812  -3.7617
    -2.8962  -2.0638  -2.0397  -1.8549  -1.6483  -1.6228  -1.4994  -1.4804
    -1.3852  -1.3624  -1.3226  -0.8355   0.7719   1.0226   1.0803   1.1887
     1.2878   1.3419   1.5110   1.7570   1.8455   1.9049

          k =-0.3333 0.3849 0.0000 ( 59291 PWs)   bands (ev):

   -72.8943 -72.8849 -44.4490 -44.3589 -44.2926 -44.2837 -44.2710 -44.2620
   -21.1089 -20.9113 -20.7144 -20.1533 -19.8006 -19.4610 -19.3122 -19.1676
   -19.0123 -18.7725 -18.6270 -18.5440 -18.1336 -18.0972 -17.9141 -17.7182
   -12.3420 -12.1064 -12.0393 -11.9039 -11.6757 -11.6512 -11.5485 -10.9368
   -10.8822 -10.6160 -10.5211  -9.8534  -9.6886  -9.3310  -9.1055  -8.6559
    -8.6166  -8.5477  -8.3849  -8.3819  -8.1556  -8.1063  -8.0575  -8.0462
    -7.6794  -7.6167  -7.4940  -7.4641  -7.3438  -7.1668  -7.0633  -6.8635
    -6.6151  -6.3853  -6.1737  -6.1537  -5.9651  -5.9221  -5.7775  -5.7520
    -5.4467  -5.3880  -5.1816  -5.0523  -4.4188  -4.3694  -4.0802  -3.7619
    -2.8998  -2.0645  -2.0404  -1.8545  -1.6475  -1.6227  -1.4997  -1.4799
    -1.3829  -1.3609  -1.3217  -0.7992   0.7062   1.0236   1.0899   1.1437
     1.2035   1.3829   1.4042   1.8073   1.9155   1.9259

          k =-0.1667-0.0962 0.0000 ( 59226 PWs)   bands (ev):

   -72.8943 -72.8849 -44.4490 -44.3589 -44.2926 -44.2836 -44.2710 -44.2620
   -21.3076 -20.5296 -20.3407 -20.3329 -19.9829 -19.9747 -19.8006 -18.7238
   -18.7161 -18.3707 -18.3606 -18.3500 -18.2658 -18.2540 -18.0727 -18.0655
   -12.5029 -12.4957 -12.4028 -11.5759 -11.5704 -11.4230 -11.4131 -10.9208
   -10.9181  -9.9244  -9.9204  -9.6702  -9.3713  -9.3647  -9.2255  -9.2223
    -9.0370  -9.0346  -8.9186  -8.3189  -8.3155  -7.8962  -7.8932  -7.8757
    -7.8392  -7.7648  -7.6056  -7.5763  -7.1319  -7.0860  -6.9536  -6.8823
    -6.8798  -6.8470  -6.5258  -6.5223  -6.2520  -5.3453  -5.3118  -5.1375
    -5.0598  -4.8051  -4.7922  -4.7452  -4.6171  -4.5951  -4.3496  -4.3264
    -2.9133  -2.0662  -2.0417  -1.8604  -1.6501  -1.6231  -1.4964  -1.4765
    -1.3762  -1.3589  -1.3183  -0.7085   0.8156   0.9001   0.9531   1.1963
     1.2578   1.3440   1.5865   1.5960   1.7072   1.9547

          k =-0.0000-0.1925 0.0000 ( 59226 PWs)   bands (ev):

   -72.8942 -72.8849 -44.4490 -44.3589 -44.2926 -44.2837 -44.2710 -44.2620
   -21.3077 -20.5251 -20.3491 -20.3324 -19.9825 -19.9683 -19.8038 -18.7257
   -18.7109 -18.3803 -18.3732 -18.3461 -18.2507 -18.2492 -18.0784 -18.0645
   -12.5001 -12.4988 -12.4025 -11.5797 -11.5683 -11.4180 -11.4148 -10.9224
   -10.9182  -9.9248  -9.9197  -9.6708  -9.3708  -9.3644  -9.2252  -9.2226
    -9.0363  -9.0358  -8.9192  -8.3189  -8.3143  -7.8949  -7.8935  -7.8588
    -7.8377  -7.7661  -7.6277  -7.5881  -7.1085  -7.0825  -6.9521  -6.8849
    -6.8787  -6.8586  -6.5273  -6.5203  -6.2524  -5.3386  -5.3100  -5.1380
    -5.0593  -4.8373  -4.7982  -4.7443  -4.5905  -4.5837  -4.3540  -4.3312
    -2.9167  -2.0669  -2.0424  -1.8599  -1.6493  -1.6230  -1.4968  -1.4763
    -1.3741  -1.3574  -1.3176  -0.6599   0.6946   0.8477   0.9552   1.1641
     1.2479   1.3756   1.5723   1.6010   1.7215   1.9702

          k = 0.5000-0.8660 0.0000 ( 59292 PWs)   bands (ev):

   -72.8943 -72.8849 -44.4490 -44.3590 -44.2926 -44.2837 -44.2710 -44.2620
   -21.0451 -21.0397 -20.4649 -20.4576 -19.4232 -19.4121 -19.4100 -19.4017
   -18.9875 -18.9826 -18.3195 -18.3178 -18.3133 -18.3031 -17.7891 -17.7822
   -12.0658 -12.0611 -12.0598 -12.0517 -11.8729 -11.8671 -11.3245 -11.3213
   -10.2304 -10.2256 -10.1297 -10.1271 -10.1253 -10.1199  -8.5854  -8.5449
    -8.5417  -8.5393  -8.5378  -8.5324  -7.8585  -7.8574  -7.8537  -7.8523
    -7.8207  -7.8136  -7.7770  -7.7475  -7.4861  -7.4792  -6.6060  -6.6011
    -6.3580  -6.3218  -6.3020  -6.2914  -6.1862  -6.1801  -5.7068  -5.6922
    -5.5408  -5.5356  -4.7200  -4.7086  -4.7055  -4.6819  -3.8826  -3.8630
    -2.8960  -2.0638  -2.0397  -1.8549  -1.6477  -1.6228  -1.4993  -1.4805
    -1.3853  -1.3623  -1.3225  -0.8358   0.7826   1.0467   1.0901   1.1752
     1.3478   1.5798   1.5881   1.6116   1.6833   1.7747

          k =-1.0000 0.0000 0.0000 ( 59292 PWs)   bands (ev):

   -72.8943 -72.8849 -44.4490 -44.3590 -44.2926 -44.2837 -44.2710 -44.2620
   -21.0672 -21.0152 -20.4714 -20.4553 -19.4203 -19.4152 -19.4112 -19.3948
   -19.0060 -18.9659 -18.3546 -18.3385 -18.2821 -18.2789 -17.7932 -17.7795
   -12.0894 -12.0804 -12.0355 -12.0293 -11.8775 -11.8634 -11.3440 -11.3040
   -10.2399 -10.2286 -10.1286 -10.1273 -10.1184 -10.1164  -8.6255  -8.5640
    -8.5563  -8.5173  -8.5169  -8.4875  -7.8678  -7.8665  -7.8532  -7.8501
    -7.8125  -7.8098  -7.7849  -7.7540  -7.5059  -7.4611  -6.6074  -6.5983
    -6.3457  -6.3202  -6.3092  -6.2781  -6.2015  -6.1677  -5.7262  -5.6800
    -5.5588  -5.5174  -4.7972  -4.7356  -4.6498  -4.6370  -3.8850  -3.8619
    -2.9108  -2.0661  -2.0416  -1.8534  -1.6472  -1.6226  -1.4996  -1.4786
    -1.3760  -1.3565  -1.3195  -0.6686   0.5493   0.8133   0.9998   1.1051
     1.2420   1.4667   1.5948   1.6219   1.6444   1.9436

 ------ SPIN DOWN ----------


          k = 0.1667 0.2887 0.0000 ( 59267 PWs)   bands (ev):

   -68.6998 -68.6891 -40.3840 -40.2779 -40.1158 -40.1052 -40.0755 -40.0648
   -21.2370 -20.6524 -20.6446 -20.0963 -20.0852 -19.5797 -19.5715 -19.0897
   -18.6879 -18.6799 -18.4494 -18.4392 -18.1840 -18.0767 -18.0686 -17.8397
   -12.4758 -12.1991 -12.1924 -11.8135 -11.8094 -11.6506 -11.1844 -11.1798
   -10.3833 -10.3595 -10.1099 -10.1059  -9.5811  -9.5794  -8.8202  -8.8130
    -8.8091  -8.7598  -8.7522  -8.5883  -8.1891  -8.0216  -8.0010  -7.8214
    -7.8183  -7.4292  -7.4284  -7.2577  -7.2393  -7.2009  -7.1972  -6.9543
    -6.9455  -6.5387  -6.5251  -6.1457  -6.1442  -5.8500  -5.4098  -5.2676
    -5.2561  -5.1917  -4.8951  -4.8792  -4.4837  -4.3365  -4.3255  -3.9601
    -1.4574   0.3895   0.9045   1.0167   1.0908   1.1255   1.2408   1.3452
     1.3886   1.4916   1.5337   1.5987   1.6409   1.7118   1.8942   1.9351
     2.0383   2.0944   2.1619   2.1896   2.2830   2.3107

          k = 0.1667-0.4811 0.0000 ( 59291 PWs)   bands (ev):

   -68.6998 -68.6891 -40.3840 -40.2779 -40.1158 -40.1052 -40.0755 -40.0648
   -21.1061 -20.9034 -20.7129 -20.1508 -19.7947 -19.4570 -19.3073 -19.1647
   -19.0048 -18.7694 -18.6289 -18.5359 -18.1364 -18.0826 -17.9121 -17.7139
   -12.3397 -12.1049 -12.0367 -11.8986 -11.6729 -11.6501 -11.5447 -10.9338
   -10.8813 -10.6149 -10.5153  -9.8513  -9.6851  -9.3276  -9.1027  -8.6384
    -8.6145  -8.5441  -8.3813  -8.3505  -8.1532  -8.1003  -8.0553  -8.0415
    -7.6794  -7.6151  -7.4858  -7.4662  -7.3330  -7.1622  -7.0598  -6.8391
    -6.6132  -6.3685  -6.1557  -6.1497  -5.9513  -5.9204  -5.7750  -5.7250
    -5.4431  -5.3778  -5.1807  -5.0274  -4.4173  -4.3368  -4.0696  -3.7480
    -1.4481   0.3776   0.9111   0.9812   1.0301   1.0836   1.1951   1.2156
     1.3433   1.4123   1.5487   1.7397   1.7890   1.8318   1.8679   2.0849
     2.1194   2.1357   2.1603   2.2147   2.2892   2.3100

          k = 0.1667-0.0962 0.0000 ( 59226 PWs)   bands (ev):

   -68.6998 -68.6891 -40.3840 -40.2779 -40.1158 -40.1051 -40.0755 -40.0648
   -21.3035 -20.5251 -20.3365 -20.3296 -19.9778 -19.9711 -19.7970 -18.7184
   -18.7122 -18.3658 -18.3568 -18.3459 -18.2610 -18.2494 -18.0684 -18.0622
   -12.5000 -12.4932 -12.4000 -11.5731 -11.5683 -11.4199 -11.4105 -10.9177
   -10.9156  -9.9213  -9.9178  -9.6671  -9.3684  -9.3620  -9.2218  -9.2194
    -9.0342  -9.0320  -8.8993  -8.3152  -8.3124  -7.8934  -7.8903  -7.8532
    -7.8350  -7.7623  -7.5880  -7.5660  -7.1048  -7.0753  -6.9508  -6.8796
    -6.8775  -6.8359  -6.5229  -6.5199  -6.2493  -5.3207  -5.2994  -5.1346
    -5.0569  -4.7874  -4.7740  -4.7325  -4.6007  -4.5828  -4.3325  -4.3167
    -1.4668   0.4035   0.9081   1.0215   1.0624   1.1117   1.1409   1.2964
     1.4802   1.5378   1.5973   1.6441   1.7643   1.8725   1.8830   1.9227
     1.9613   2.0285   2.1189   2.1737   2.2435   2.3061

          k =-0.5000-0.8660 0.0000 ( 59292 PWs)   bands (ev):

   -68.6998 -68.6891 -40.3840 -40.2779 -40.1158 -40.1052 -40.0755 -40.0648
   -21.0423 -21.0342 -20.4606 -20.4542 -19.4173 -19.4088 -19.4058 -19.3979
   -18.9847 -18.9773 -18.3147 -18.3135 -18.3121 -18.2959 -17.7842 -17.7784
   -12.0622 -12.0588 -12.0585 -12.0478 -11.8702 -11.8652 -11.3223 -11.3179
   -10.2272 -10.2231 -10.1262 -10.1236 -10.1223 -10.1175  -8.5548  -8.5406
    -8.5398  -8.5361  -8.5311  -8.5283  -7.8555  -7.8545  -7.8511  -7.8502
    -7.8157  -7.8101  -7.7589  -7.7368  -7.4845  -7.4758  -6.6029  -6.5988
    -6.3262  -6.3012  -6.2920  -6.2809  -6.1837  -6.1767  -5.6883  -5.6818
    -5.5390  -5.5316  -4.7003  -4.6924  -4.6828  -4.6790  -3.8656  -3.8520
    -1.4254   0.1421   0.9306   0.9957   1.0794   1.1227   1.1986   1.3660
     1.5144   1.5484   1.5796   1.6957   1.7365   1.8629   1.9099   1.9481
     1.9939   2.0345   2.1789   2.2226   2.3070   2.3215

          k =-0.1667 0.2887 0.0000 ( 59267 PWs)   bands (ev):

   -68.6998 -68.6891 -40.3840 -40.2779 -40.1158 -40.1052 -40.0755 -40.0648
   -21.2370 -20.6524 -20.6446 -20.0963 -20.0852 -19.5798 -19.5715 -19.0897
   -18.6879 -18.6799 -18.4493 -18.4393 -18.1840 -18.0767 -18.0686 -17.8397
   -12.4757 -12.1991 -12.1925 -11.8135 -11.8094 -11.6506 -11.1844 -11.1797
   -10.3833 -10.3595 -10.1099 -10.1059  -9.5812  -9.5794  -8.8202  -8.8130
    -8.8091  -8.7599  -8.7522  -8.5883  -8.1892  -8.0216  -8.0010  -7.8213
    -7.8182  -7.4293  -7.4284  -7.2577  -7.2394  -7.2009  -7.1972  -6.9544
    -6.9455  -6.5387  -6.5251  -6.1457  -6.1441  -5.8500  -5.4099  -5.2676
    -5.2561  -5.1916  -4.8951  -4.8791  -4.4837  -4.3365  -4.3255  -3.9601
    -1.4574   0.3895   0.9045   1.0167   1.0909   1.1255   1.2408   1.3452
     1.3886   1.4916   1.5336   1.5987   1.6409   1.7118   1.8942   1.9351
     2.0384   2.0947   2.1621   2.1898   2.2831   2.3106

          k = 0.3333 0.0000 0.0000 ( 59267 PWs)   bands (ev):

   -68.6998 -68.6891 -40.3840 -40.2779 -40.1158 -40.1051 -40.0755 -40.0648
   -21.2367 -20.6723 -20.6247 -20.0935 -20.0869 -19.5995 -19.5531 -19.0911
   -18.7002 -18.6643 -18.4479 -18.4420 -18.1806 -18.0939 -18.0560 -17.8392
   -12.4756 -12.1969 -12.1944 -11.8201 -11.8045 -11.6488 -11.1996 -11.1652
   -10.3823 -10.3596 -10.1195 -10.0964  -9.5864  -9.5733  -8.8259  -8.8141
    -8.8012  -8.7764  -8.7360  -8.5892  -8.1903  -8.0649  -7.9577  -7.8201
    -7.8180  -7.4344  -7.4229  -7.2607  -7.2325  -7.2084  -7.1897  -6.9524
    -6.9482  -6.5836  -6.4853  -6.1479  -6.1413  -5.8543  -5.4095  -5.2785
    -5.2380  -5.1921  -4.8976  -4.8789  -4.4771  -4.3575  -4.3128  -3.9594
    -1.4430   0.2219   0.9586   1.0241   1.0886   1.1295   1.1661   1.4043
     1.4717   1.5145   1.5435   1.6688   1.7753   1.8404   1.9025   1.9180
     2.0035   2.0641   2.1249   2.1770   2.2941   2.3666

          k =-0.1667-0.4811 0.0000 ( 59291 PWs)   bands (ev):

   -68.6998 -68.6891 -40.3840 -40.2779 -40.1158 -40.1052 -40.0755 -40.0648
   -21.1061 -20.9034 -20.7129 -20.1508 -19.7947 -19.4570 -19.3073 -19.1647
   -19.0048 -18.7694 -18.6289 -18.5359 -18.1364 -18.0826 -17.9121 -17.7139
   -12.3397 -12.1048 -12.0367 -11.8986 -11.6729 -11.6501 -11.5447 -10.9338
   -10.8814 -10.6149 -10.5153  -9.8513  -9.6851  -9.3277  -9.1027  -8.6384
    -8.6145  -8.5441  -8.3812  -8.3505  -8.1532  -8.1003  -8.0553  -8.0416
    -7.6794  -7.6152  -7.4858  -7.4661  -7.3330  -7.1622  -7.0598  -6.8391
    -6.6132  -6.3685  -6.1557  -6.1497  -5.9513  -5.9203  -5.7750  -5.7249
    -5.4432  -5.3777  -5.1807  -5.0275  -4.4173  -4.3368  -4.0696  -3.7480
    -1.4481   0.3776   0.9111   0.9811   1.0301   1.0836   1.1950   1.2156
     1.3434   1.4123   1.5487   1.7397   1.7889   1.8316   1.8679   2.0847
     2.1194   2.1356   2.1604   2.2151   2.2893   2.3098

          k = 0.5000-0.0962 0.0000 ( 59291 PWs)   bands (ev):

   -68.6998 -68.6891 -40.3840 -40.2780 -40.1158 -40.1051 -40.0755 -40.0648
   -21.1040 -20.9091 -20.7093 -20.1495 -19.7949 -19.4582 -19.3117 -19.1611
   -19.0054 -18.7697 -18.6218 -18.5404 -18.1274 -18.0946 -17.9100 -17.7137
   -12.3390 -12.1051 -12.0350 -11.9018 -11.6828 -11.6383 -11.5466 -10.9339
   -10.8797 -10.6136 -10.5172  -9.8494  -9.6857  -9.3285  -9.1022  -8.6316
    -8.6147  -8.5427  -8.3843  -8.3710  -8.1516  -8.0873  -8.0656  -8.0323
    -7.6767  -7.6157  -7.4850  -7.4672  -7.3284  -7.1634  -7.0601  -6.8392
    -6.6133  -6.3738  -6.1677  -6.1491  -5.9416  -5.9196  -5.7745  -5.7259
    -5.4442  -5.3775  -5.1652  -5.0377  -4.3998  -4.3577  -4.0675  -3.7479
    -1.4255   0.1438   0.9277   1.0030   1.0569   1.0960   1.1709   1.2361
     1.3751   1.5952   1.6896   1.7624   1.8450   1.8982   1.9559   1.9925
     2.0331   2.1109   2.1932   2.2586   2.2936   2.3540

          k =-0.3333-0.3849 0.0000 ( 59291 PWs)   bands (ev):

   -68.6998 -68.6891 -40.3840 -40.2779 -40.1158 -40.1052 -40.0755 -40.0648
   -21.1047 -20.9071 -20.7107 -20.1494 -19.7962 -19.4569 -19.3081 -19.1635
   -19.0075 -18.7685 -18.6228 -18.5398 -18.1291 -18.0926 -17.9101 -17.7138
   -12.3394 -12.1038 -12.0368 -11.9010 -11.6736 -11.6483 -11.5457 -10.9338
   -10.8794 -10.6131 -10.5180  -9.8502  -9.6858  -9.3279  -9.1027  -8.6335
    -8.6139  -8.5443  -8.3822  -8.3636  -8.1530  -8.0922  -8.0553  -8.0432
    -7.6770  -7.6142  -7.4906  -7.4623  -7.3278  -7.1635  -7.0605  -6.8442
    -6.6118  -6.3687  -6.1568  -6.1506  -5.9494  -5.9190  -5.7748  -5.7325
    -5.4440  -5.3744  -5.1655  -5.0376  -4.4022  -4.3555  -4.0670  -3.7480
    -1.4332   0.2095   0.9186   0.9821   1.0514   1.0943   1.2075   1.2661
     1.3297   1.5067   1.6749   1.7617   1.8513   1.8986   1.9307   2.0038
     2.0568   2.0756   2.1442   2.2277   2.3072   2.3292

          k = 0.5000 0.0962 0.0000 ( 59291 PWs)   bands (ev):

   -68.6998 -68.6891 -40.3840 -40.2780 -40.1158 -40.1051 -40.0755 -40.0648
   -21.1040 -20.9091 -20.7093 -20.1495 -19.7949 -19.4582 -19.3117 -19.1611
   -19.0054 -18.7697 -18.6218 -18.5404 -18.1274 -18.0946 -17.9100 -17.7137
   -12.3390 -12.1052 -12.0350 -11.9018 -11.6828 -11.6382 -11.5466 -10.9339
   -10.8797 -10.6136 -10.5172  -9.8494  -9.6857  -9.3285  -9.1022  -8.6316
    -8.6147  -8.5428  -8.3843  -8.3710  -8.1516  -8.0873  -8.0656  -8.0323
    -7.6767  -7.6156  -7.4850  -7.4672  -7.3284  -7.1634  -7.0601  -6.8393
    -6.6133  -6.3738  -6.1677  -6.1490  -5.9416  -5.9196  -5.7746  -5.7259
    -5.4443  -5.3776  -5.1652  -5.0377  -4.3998  -4.3577  -4.0675  -3.7479
    -1.4255   0.1438   0.9277   1.0030   1.0569   1.0960   1.1709   1.2361
     1.3751   1.5952   1.6895   1.7624   1.8449   1.8982   1.9558   1.9925
     2.0332   2.1108   2.1930   2.2582   2.2933   2.3542

          k =-0.3333 0.3849 0.0000 ( 59291 PWs)   bands (ev):

   -68.6998 -68.6891 -40.3840 -40.2779 -40.1158 -40.1052 -40.0755 -40.0648
   -21.1047 -20.9071 -20.7107 -20.1494 -19.7962 -19.4569 -19.3081 -19.1635
   -19.0075 -18.7685 -18.6228 -18.5398 -18.1291 -18.0926 -17.9101 -17.7138
   -12.3393 -12.1038 -12.0368 -11.9010 -11.6737 -11.6483 -11.5457 -10.9339
   -10.8794 -10.6130 -10.5180  -9.8502  -9.6858  -9.3279  -9.1027  -8.6335
    -8.6140  -8.5443  -8.3822  -8.3636  -8.1530  -8.0922  -8.0553  -8.0431
    -7.6770  -7.6142  -7.4906  -7.4623  -7.3278  -7.1635  -7.0606  -6.8442
    -6.6119  -6.3687  -6.1568  -6.1506  -5.9494  -5.9191  -5.7748  -5.7325
    -5.4438  -5.3744  -5.1656  -5.0376  -4.4022  -4.3555  -4.0670  -3.7480
    -1.4332   0.2095   0.9186   0.9821   1.0514   1.0943   1.2075   1.2661
     1.3297   1.5067   1.6749   1.7617   1.8512   1.8986   1.9306   2.0037
     2.0567   2.0753   2.1439   2.2277   2.3064   2.3295

          k =-0.1667-0.0962 0.0000 ( 59226 PWs)   bands (ev):

   -68.6998 -68.6891 -40.3840 -40.2779 -40.1158 -40.1051 -40.0755 -40.0648
   -21.3035 -20.5251 -20.3365 -20.3296 -19.9779 -19.9711 -19.7970 -18.7185
   -18.7121 -18.3658 -18.3568 -18.3459 -18.2610 -18.2495 -18.0684 -18.0622
   -12.5000 -12.4932 -12.4000 -11.5731 -11.5683 -11.4200 -11.4105 -10.9177
   -10.9156  -9.9213  -9.9178  -9.6670  -9.3684  -9.3620  -9.2219  -9.2194
    -9.0342  -9.0320  -8.8993  -8.3153  -8.3124  -7.8934  -7.8903  -7.8532
    -7.8350  -7.7624  -7.5880  -7.5660  -7.1048  -7.0753  -6.9509  -6.8796
    -6.8775  -6.8359  -6.5229  -6.5199  -6.2494  -5.3207  -5.2994  -5.1345
    -5.0570  -4.7873  -4.7740  -4.7325  -4.6007  -4.5828  -4.3325  -4.3167
    -1.4668   0.4035   0.9080   1.0215   1.0624   1.1117   1.1409   1.2964
     1.4803   1.5378   1.5973   1.6442   1.7643   1.8725   1.8830   1.9226
     1.9612   2.0285   2.1187   2.1739   2.2434   2.3061

          k =-0.0000-0.1925 0.0000 ( 59226 PWs)   bands (ev):

   -68.6998 -68.6891 -40.3840 -40.2779 -40.1158 -40.1051 -40.0755 -40.0648
   -21.3036 -20.5213 -20.3443 -20.3284 -19.9783 -19.9650 -19.7997 -18.7209
   -18.7071 -18.3735 -18.3674 -18.3421 -18.2482 -18.2464 -18.0738 -18.0604
   -12.4977 -12.4958 -12.3998 -11.5769 -11.5659 -11.4157 -11.4121 -10.9194
   -10.9154  -9.9219  -9.9170  -9.6676  -9.3678  -9.3620  -9.2219  -9.2195
    -9.0336  -9.0330  -8.8997  -8.3156  -8.3111  -7.8924  -7.8911  -7.8439
    -7.8312  -7.7634  -7.6035  -7.5734  -7.0923  -7.0694  -6.9496  -6.8821
    -6.8763  -6.8442  -6.5245  -6.5179  -6.2496  -5.3190  -5.2952  -5.1350
    -5.0565  -4.8076  -4.7811  -4.7305  -4.5821  -4.5760  -4.3380  -4.3171
    -1.4736   0.5324   0.8730   0.9856   1.0800   1.0969   1.1913   1.2342
     1.4332   1.5217   1.5275   1.5851   1.7299   1.8531   1.8682   1.9087
     2.0576   2.0594   2.1318   2.1547   2.2116   2.3026

          k = 0.5000-0.8660 0.0000 ( 59292 PWs)   bands (ev):

   -68.6998 -68.6891 -40.3840 -40.2779 -40.1158 -40.1052 -40.0755 -40.0648
   -21.0424 -21.0342 -20.4606 -20.4542 -19.4173 -19.4088 -19.4058 -19.3979
   -18.9848 -18.9772 -18.3147 -18.3134 -18.3122 -18.2959 -17.7843 -17.7784
   -12.0622 -12.0589 -12.0586 -12.0477 -11.8702 -11.8652 -11.3223 -11.3178
   -10.2272 -10.2231 -10.1262 -10.1237 -10.1223 -10.1175  -8.5548  -8.5406
    -8.5398  -8.5360  -8.5311  -8.5282  -7.8555  -7.8545  -7.8511  -7.8502
    -7.8158  -7.8102  -7.7589  -7.7368  -7.4846  -7.4759  -6.6028  -6.5987
    -6.3262  -6.3013  -6.2919  -6.2809  -6.1837  -6.1765  -5.6883  -5.6819
    -5.5391  -5.5317  -4.7003  -4.6925  -4.6828  -4.6791  -3.8657  -3.8520
    -1.4254   0.1421   0.9306   0.9958   1.0794   1.1227   1.1986   1.3660
     1.5143   1.5484   1.5796   1.6957   1.7365   1.8629   1.9098   1.9482
     1.9939   2.0343   2.1789   2.2226   2.3081   2.3215

          k =-1.0000 0.0000 0.0000 ( 59292 PWs)   bands (ev):

   -68.6998 -68.6891 -40.3840 -40.2779 -40.1158 -40.1052 -40.0755 -40.0647
   -21.0612 -21.0133 -20.4668 -20.4515 -19.4159 -19.4107 -19.4072 -19.3916
   -18.9995 -18.9640 -18.3461 -18.3313 -18.2810 -18.2781 -17.7885 -17.7754
   -12.0857 -12.0757 -12.0344 -12.0282 -11.8748 -11.8613 -11.3397 -11.3023
   -10.2359 -10.2254 -10.1254 -10.1242 -10.1158 -10.1143  -8.5931  -8.5599
    -8.5524  -8.5164  -8.5155  -8.4836  -7.8645  -7.8629  -7.8505  -7.8474
    -7.8071  -7.8059  -7.7668  -7.7400  -7.5019  -7.4599  -6.6045  -6.5959
    -6.3209  -6.3007  -6.2966  -6.2688  -6.1972  -6.1655  -5.7078  -5.6670
    -5.5543  -5.5163  -4.7609  -4.7145  -4.6467  -4.6351  -3.8696  -3.8491
    -1.4552   0.4956   0.9121   1.0100   1.0446   1.0528   1.2105   1.2523
     1.3353   1.3484   1.6256   1.6412   1.6770   1.8098   1.8127   1.8350
     2.1361   2.1469   2.1599   2.1957   2.2883   2.3097

     the Fermi energy is    -1.1612 ev

!    total energy              =   -1133.82766977 Ry

     total all-electron energy =     -6753.503373 Ry
     estimated scf accuracy    <       0.00000002 Ry
     smearing contrib. (-TS)   =      -0.00000000 Ry
     internal energy E=F+TS    =   -1133.82766977 Ry

     The total energy is F=E-TS. E is the sum of the following terms:
     one-electron contribution =   -3954.38513999 Ry
     hartree contribution      =    2005.39927197 Ry
     xc contribution           =    -186.02401787 Ry
     ewald contribution        =    1360.55844573 Ry
     DFT-D3 Dispersion         =      -0.13286852 Ry
     one-center paw contrib.   =    -359.24336108 Ry

     total magnetization       =    10.00 Bohr mag/cell
     absolute magnetization    =    10.01 Bohr mag/cell

     convergence has been achieved in  14 iterations

     Writing output data file ./mytmp/Crdimer0.14-0.2.save/
 
     init_run     :     18.75s CPU     20.08s WALL (       1 calls)
     electrons    :    521.56s CPU    567.32s WALL (       1 calls)

     Called by init_run:
     wfcinit      :     13.80s CPU     14.58s WALL (       1 calls)
     potinit      :      1.48s CPU      1.56s WALL (       1 calls)
     hinit0       :      1.51s CPU      1.59s WALL (       1 calls)

     Called by electrons:
     c_bands      :    407.12s CPU    433.09s WALL (      14 calls)
     sum_band     :     80.74s CPU     92.66s WALL (      14 calls)
     v_of_rho     :      7.53s CPU      8.38s WALL (      15 calls)
     newd         :     18.29s CPU     25.33s WALL (      15 calls)
     PAW_pot      :      7.40s CPU      7.50s WALL (      15 calls)
     mix_rho      :      0.99s CPU      1.09s WALL (      14 calls)

     Called by c_bands:
     init_us_2    :      5.05s CPU      5.11s WALL (     870 calls)
     cegterg      :    394.72s CPU    420.58s WALL (     420 calls)

     Called by *egterg:
     cdiaghg      :     23.51s CPU     37.86s WALL (    2656 calls)
     h_psi        :    241.04s CPU    251.00s WALL (    2686 calls)
     s_psi        :     26.48s CPU     26.60s WALL (    2686 calls)
     g_psi        :      0.63s CPU      0.65s WALL (    2236 calls)

     Called by h_psi:
     h_psi:calbec :     28.81s CPU     29.50s WALL (    2686 calls)
     vloc_psi     :    182.52s CPU    191.53s WALL (    2686 calls)
     add_vuspsi   :     27.45s CPU     27.67s WALL (    2686 calls)

     General routines
     calbec       :     38.49s CPU     39.40s WALL (    3106 calls)
     fft          :      9.36s CPU     14.07s WALL (     369 calls)
     ffts         :      0.12s CPU      0.12s WALL (      58 calls)
     fftw         :    188.56s CPU    197.71s WALL (  247258 calls)
     interpolate  :      0.42s CPU      0.45s WALL (      30 calls)
 
     Parallel routines
     fft_scatt_xy :     30.69s CPU     31.94s WALL (  247685 calls)
     fft_scatt_yz :     78.65s CPU     87.61s WALL (  247685 calls)
 
     PWSCF        :   9m 2.48s CPU   9m52.34s WALL

 
   This run was terminated on:  14:23:47  31Mar2021            

=------------------------------------------------------------------------------=
   JOB DONE.
=------------------------------------------------------------------------------=
