
     Program PWSCF v.6.7MaX starts on 31Mar2021 at 12:25:35 

     This program is part of the open-source Quantum ESPRESSO suite
     for quantum simulation of materials; please cite
         "P. Giannozzi et al., J. Phys.:Condens. Matter 21 395502 (2009);
         "P. Giannozzi et al., J. Phys.:Condens. Matter 29 465901 (2017);
          URL http://www.quantum-espresso.org", 
     in publications or presentations arising from this work. More details at
     http://www.quantum-espresso.org/quote

     Parallel version (MPI), running on    48 processors

     MPI processes distributed on     1 nodes
     R & G space division:  proc/nbgrp/npool/nimage =      48
     Reading input from Crdimer0.12-0.3.scf.in

     Current dimensions of program PWSCF are:
     Max number of different atomic species (ntypx) = 10
     Max number of k-points (npk) =  40000
     Max angular momentum in pseudopotentials (lmaxx) =  3
     file N.pbe-n-kjpaw_psl.1.0.0.UPF: wavefunction(s)  2S renormalized
     file Cr.pbe-spn-kjpaw_psl.1.0.0.UPF: wavefunction(s)  3S 3P 3D renormalized
     file Cr.pbe-spn-kjpaw_psl.1.0.0.UPF: wavefunction(s)  3S 3P 3D renormalized

     --------------------------------------------
     Parameters for DFT-D3 Dispersion Correction:
     --------------------------------------------
       Reference C6 values for interpolation: 

         atom   Coordination number   C6
         B          0.000           214.36
         B          0.971           150.74
         B          1.944           106.23
         B          2.913            62.89
         B          4.586            56.06
         N          0.000            50.54
         N          0.994            44.25
         N          2.014            39.35
         N          2.990            31.16
         Cr1        0.000          1381.48
         Cr1        1.827           571.38
         Cr1       10.619           306.69
         Cr2        0.000          1381.48
         Cr2        1.827           571.38
         Cr2       10.619           306.69

       Values used:

         atom   Coordination number  R0_AB[au]  C6      C8
         B          3.337            3.039     62.89   2505.95
         B          3.335            3.039     62.89   2506.00
         B          3.338            3.039     62.89   2505.94
         B          3.335            3.039     62.89   2506.01
         B          3.381            3.039     62.86   2504.70
         B          3.335            3.039     62.89   2506.01
         N          3.134            2.478     31.22    688.69
         N          3.136            2.478     31.22    688.68
         N          3.140            2.478     31.22    688.64
         N          3.135            2.478     31.22    688.69
         N          3.161            2.478     31.21    688.47
         N          3.134            2.478     31.22    688.69
         N          3.146            2.478     31.21    688.59
         N          3.134            2.478     31.22    688.70
         N          3.134            2.478     31.22    688.70
         B          3.340            3.039     62.89   2505.89
         B          3.335            3.039     62.89   2506.00
         B          3.335            3.039     62.89   2506.01
         B          3.381            3.039     62.86   2504.70
         B          3.337            3.039     62.89   2505.95
         B          3.340            3.039     62.89   2505.89
         N          3.146            2.478     31.21    688.59
         B          3.335            3.039     62.89   2506.00
         B          3.345            3.039     62.89   2505.76
         B          3.337            3.039     62.89   2505.98
         N          3.134            2.478     31.22    688.69
         N          3.136            2.478     31.22    688.68
         N          3.134            2.478     31.22    688.70
         N          3.134            2.478     31.22    688.70
         N          3.140            2.478     31.22    688.64
         N          3.135            2.478     31.22    688.69
         B          3.337            3.039     62.89   2505.98
         Cr1        1.073            3.252    624.28  57614.25
         Cr2        1.073            3.252    624.28  57614.26

         Molecular C6 ( Ry / a.u.^6 ) =     69106.17


     Subspace diagonalization in iterative solution of the eigenvalue problem:
     one sub-group per band group will be used
     scalapack distributed-memory algorithm (size of sub-group:  6*  6 procs)

 
     Parallelization info
     --------------------
     sticks:   dense  smooth     PW     G-vecs:    dense   smooth      PW
     Min         235      98     26                36277     9874    1408
     Max         236      99     27                36282     9883    1425
     Sum       11311    4741   1285              1741401   474235   68095
 


     bravais-lattice index     =            4
     lattice parameter (alat)  =      18.9275  a.u.
     unit-cell volume          =   10553.3021 (a.u.)^3
     number of atoms/cell      =           34
     number of atomic types    =            4
     number of electrons       =       156.00
     number of Kohn-Sham states=           94
     kinetic-energy cutoff     =      48.0000  Ry
     charge density cutoff     =     457.0000  Ry
     scf convergence threshold =      1.0E-07
     mixing beta               =       0.5000
     number of iterations used =            8  plain     mixing
     Exchange-correlation= SLA  PW   PBX  PBC
                           (   1   4   3   4   0   0   0)

     celldm(1)=  18.927497  celldm(2)=   0.000000  celldm(3)=   1.797125
     celldm(4)=   0.000000  celldm(5)=   0.000000  celldm(6)=   0.000000

     crystal axes: (cart. coord. in units of alat)
               a(1) = (   1.000000   0.000000   0.000000 )  
               a(2) = (  -0.500000   0.866025   0.000000 )  
               a(3) = (   0.000000   0.000000   1.797125 )  

     reciprocal axes: (cart. coord. in units 2 pi/alat)
               b(1) = (  1.000000  0.577350  0.000000 )  
               b(2) = (  0.000000  1.154701  0.000000 )  
               b(3) = (  0.000000  0.000000  0.556444 )  


     PseudoPot. # 1 for B  read from file:
     /home/sf05/q-e-qe-6.7MaX-Release/pseudo/B.pbe-n-kjpaw_psl.1.0.0.UPF
     MD5 check sum: d9c678ba5d3b2fd7b74e61139c9288d8
     Pseudo is Projector augmented-wave + core cor, Zval =  3.0
     Generated using "atomic" code by A. Dal Corso  v.5.1.2
     Shape of augmentation charge: PSQ
     Using radial grid of 1059 points,  4 beta functions with: 
                l(1) =   0
                l(2) =   0
                l(3) =   1
                l(4) =   1
     Q(r) pseudized with 0 coefficients 


     PseudoPot. # 2 for N  read from file:
     /home/sf05/q-e-qe-6.7MaX-Release/pseudo/N.pbe-n-kjpaw_psl.1.0.0.UPF
     MD5 check sum: e0e4e94a9c4025c5b51bd7d8793849bd
     Pseudo is Projector augmented-wave + core cor, Zval =  5.0
     Generated using "atomic" code by A. Dal Corso  v.5.1.2
     Shape of augmentation charge: PSQ
     Using radial grid of 1085 points,  4 beta functions with: 
                l(1) =   0
                l(2) =   0
                l(3) =   1
                l(4) =   1
     Q(r) pseudized with 0 coefficients 


     PseudoPot. # 3 for Cr read from file:
     /home/sf05/q-e-qe-6.7MaX-Release/pseudo/Cr.pbe-spn-kjpaw_psl.1.0.0.UPF
     MD5 check sum: 198f1a2427a48552563eee314eba32ba
     Pseudo is Projector augmented-wave + core cor, Zval = 14.0
     Generated using &quot;atomic&quot; code by A. Dal Corso  v.6.3
     Shape of augmentation charge: PSQ
     Using radial grid of 1183 points,  6 beta functions with: 
                l(1) =   0
                l(2) =   0
                l(3) =   1
                l(4) =   1
                l(5) =   2
                l(6) =   2
     Q(r) pseudized with 0 coefficients 


     PseudoPot. # 4 for Cr read from file:
     /home/sf05/q-e-qe-6.7MaX-Release/pseudo/Cr.pbe-spn-kjpaw_psl.1.0.0.UPF
     MD5 check sum: 198f1a2427a48552563eee314eba32ba
     Pseudo is Projector augmented-wave + core cor, Zval = 14.0
     Generated using &quot;atomic&quot; code by A. Dal Corso  v.6.3
     Shape of augmentation charge: PSQ
     Using radial grid of 1183 points,  6 beta functions with: 
                l(1) =   0
                l(2) =   0
                l(3) =   1
                l(4) =   1
                l(5) =   2
                l(6) =   2
     Q(r) pseudized with 0 coefficients 


     atomic species   valence    mass     pseudopotential
        B              3.00    10.81100     B ( 1.00)
        N              5.00    14.00674     N ( 1.00)
        Cr1           14.00    51.99610     Cr( 1.00)
        Cr2           14.00    51.99610     Cr( 1.00)

     Starting magnetic structure 
     atomic species   magnetization
        B            0.000
        N            0.000
        Cr1          1.000
        Cr2          1.000

     No symmetry found



   Cartesian axes

     site n.     atom                  positions (alat units)
         1           B   tau(   1) = (  -0.1250000   0.2165064   0.8985623  )
         2           B   tau(   2) = (   0.3750000   0.6495191   0.8985623  )
         3           B   tau(   3) = (   0.2500000   0.0000000   0.8985623  )
         4           B   tau(   4) = (   0.7500000   0.0000000   0.8985623  )
         5           B   tau(   5) = (   0.1250000   0.2165064   0.8985623  )
         6           B   tau(   6) = (  -0.3750000   0.6495191   0.8985623  )
         7           N   tau(   7) = (   0.7500005   0.2886748   0.8985623  )
         8           N   tau(   8) = (   0.3750005   0.5051812   0.8985623  )
         9           N   tau(   9) = (   0.3750005   0.0721685   0.8985623  )
        10           N   tau(  10) = (   0.6250005   0.0721685   0.8985623  )
        11           N   tau(  11) = (   0.2500005   0.2886748   0.8985623  )
        12           N   tau(  12) = (   0.6250005   0.5051812   0.8985623  )
        13           N   tau(  13) = (   0.0000005   0.2886748   0.8985623  )
        14           N   tau(  14) = (   0.2500005   0.7216875   0.8985623  )
        15           N   tau(  15) = (  -0.2499995   0.7216875   0.8985623  )
        16           B   tau(  16) = (   0.0000000   0.4330127   0.8985623  )
        17           B   tau(  17) = (   0.1250000   0.6495191   0.8985623  )
        18           B   tau(  18) = (  -0.1250000   0.6495191   0.8985623  )
        19           B   tau(  19) = (   0.3750000   0.2165064   0.8985623  )
        20           B   tau(  20) = (   0.6250000   0.2165064   0.8985623  )
        21           B   tau(  21) = (   0.5000000   0.4330127   0.8985623  )
        22           N   tau(  22) = (   0.5000005   0.2886748   0.8985623  )
        23           B   tau(  23) = (  -0.2500000   0.4330127   0.8985623  )
        24           B   tau(  24) = (   0.2500000   0.4330127   0.8985623  )
        25           B   tau(  25) = (   0.5000000   0.0000000   0.8985623  )
        26           N   tau(  26) = (  -0.1249995   0.5051812   0.8985623  )
        27           N   tau(  27) = (   0.1250005   0.5051812   0.8985623  )
        28           N   tau(  28) = (   0.0000005   0.7216875   0.8985623  )
        29           N   tau(  29) = (   0.5000005   0.7216875   0.8985623  )
        30           N   tau(  30) = (   0.1250005   0.0721685   0.8985623  )
        31           N   tau(  31) = (   0.8750005   0.0721685   0.8985623  )
        32           B   tau(  32) = (   0.0000000   0.0000000   0.8985623  )
        33           Cr1 tau(  33) = (   0.3700000   0.2598076   1.2040735  )
        34           Cr2 tau(  34) = (   0.1300000   0.2598076   1.2040735  )

     number of k points=    15  Gaussian smearing, width (Ry)=  0.0000
                       cart. coord. in units 2pi/alat
        k(    1) = (   0.1666667   0.2886751   0.0000000), wk =   0.0740741
        k(    2) = (   0.1666667  -0.4811252   0.0000000), wk =   0.0740741
        k(    3) = (   0.1666667  -0.0962250   0.0000000), wk =   0.0740741
        k(    4) = (  -0.5000000  -0.8660254   0.0000000), wk =   0.0370370
        k(    5) = (  -0.1666667   0.2886751   0.0000000), wk =   0.0740741
        k(    6) = (   0.3333333   0.0000000   0.0000000), wk =   0.0740741
        k(    7) = (  -0.1666667  -0.4811252   0.0000000), wk =   0.0740741
        k(    8) = (   0.5000000  -0.0962250   0.0000000), wk =   0.0740741
        k(    9) = (  -0.3333333  -0.3849002   0.0000000), wk =   0.0740741
        k(   10) = (   0.5000000   0.0962250   0.0000000), wk =   0.0740741
        k(   11) = (  -0.3333333   0.3849002   0.0000000), wk =   0.0740741
        k(   12) = (  -0.1666667  -0.0962250   0.0000000), wk =   0.0740741
        k(   13) = (  -0.0000000  -0.1924501   0.0000000), wk =   0.0740741
        k(   14) = (   0.5000000  -0.8660254   0.0000000), wk =   0.0370370
        k(   15) = (  -1.0000000   0.0000000   0.0000000), wk =   0.0370370

     Dense  grid:  1741401 G-vectors     FFT dimensions: ( 135, 135, 240)

     Smooth grid:   474235 G-vectors     FFT dimensions: (  90,  90, 160)

     Estimated max dynamical RAM per process >     218.62 MB

     Estimated total dynamical RAM >      10.25 GB
     Generating pointlists ...
     new r_m :   0.0595 (alat units)  1.1269 (a.u.) for type    1
     new r_m :   0.0595 (alat units)  1.1269 (a.u.) for type    2
     new r_m :   0.0990 (alat units)  1.8738 (a.u.) for type    3
     new r_m :   0.0990 (alat units)  1.8738 (a.u.) for type    4

     Initial potential from superposition of free atoms

     starting charge  155.99382, renormalised to  156.00000

     negative rho (up, down):  6.804E-03 4.655E-04
     Starting wfcs are  148 randomized atomic wfcs
     Checking if some PAW data can be deallocated... 

     total cpu time spent up to now is       20.4 secs

     Self-consistent Calculation

     iteration #  1     ecut=    48.00 Ry     beta= 0.50
     Davidson diagonalization with overlap
     ethr =  1.00E-02,  avg # of iterations =  3.0

     negative rho (up, down):  5.042E-03 2.906E-03

     total cpu time spent up to now is       85.6 secs

     total energy              =   -1130.66558768 Ry
     estimated scf accuracy    <      11.40306608 Ry

     total magnetization       =    12.00 Bohr mag/cell
     absolute magnetization    =    12.09 Bohr mag/cell

     iteration #  2     ecut=    48.00 Ry     beta= 0.50
     Davidson diagonalization with overlap
     ethr =  7.31E-03,  avg # of iterations =  2.7

     negative rho (up, down):  8.790E-03 7.048E-03

     total cpu time spent up to now is      123.7 secs

     total energy              =   -1133.03751163 Ry
     estimated scf accuracy    <       3.40038952 Ry

     total magnetization       =    10.00 Bohr mag/cell
     absolute magnetization    =    10.19 Bohr mag/cell

     iteration #  3     ecut=    48.00 Ry     beta= 0.50
     Davidson diagonalization with overlap
     ethr =  2.18E-03,  avg # of iterations =  8.0

     negative rho (up, down):  3.930E-03 3.332E-03

     total cpu time spent up to now is      163.2 secs

     total energy              =   -1133.54664569 Ry
     estimated scf accuracy    <       0.81787498 Ry

     total magnetization       =    10.00 Bohr mag/cell
     absolute magnetization    =    10.11 Bohr mag/cell

     iteration #  4     ecut=    48.00 Ry     beta= 0.50
     Davidson diagonalization with overlap
     ethr =  5.24E-04,  avg # of iterations =  6.6

     negative rho (up, down):  8.698E-03 8.565E-03

     total cpu time spent up to now is      200.2 secs

     total energy              =   -1133.70324935 Ry
     estimated scf accuracy    <       0.75110877 Ry

     total magnetization       =    10.00 Bohr mag/cell
     absolute magnetization    =    10.01 Bohr mag/cell

     iteration #  5     ecut=    48.00 Ry     beta= 0.50
     Davidson diagonalization with overlap
     ethr =  4.81E-04,  avg # of iterations =  6.7

     negative rho (up, down):  4.604E-03 4.883E-03

     total cpu time spent up to now is      237.9 secs

     total energy              =   -1133.78965111 Ry
     estimated scf accuracy    <       0.05326587 Ry

     total magnetization       =    10.00 Bohr mag/cell
     absolute magnetization    =    10.02 Bohr mag/cell

     iteration #  6     ecut=    48.00 Ry     beta= 0.50
     Davidson diagonalization with overlap
     ethr =  3.41E-05,  avg # of iterations = 11.5

     negative rho (up, down):  3.760E-03 4.158E-03

     total cpu time spent up to now is      283.1 secs

     total energy              =   -1133.79360081 Ry
     estimated scf accuracy    <       0.01476227 Ry

     total magnetization       =    10.00 Bohr mag/cell
     absolute magnetization    =    10.02 Bohr mag/cell

     iteration #  7     ecut=    48.00 Ry     beta= 0.50
     Davidson diagonalization with overlap
     ethr =  9.46E-06,  avg # of iterations =  7.4

     negative rho (up, down):  3.634E-03 4.079E-03

     total cpu time spent up to now is      323.2 secs

     total energy              =   -1133.79707833 Ry
     estimated scf accuracy    <       0.00507463 Ry

     total magnetization       =    10.00 Bohr mag/cell
     absolute magnetization    =    10.01 Bohr mag/cell

     iteration #  8     ecut=    48.00 Ry     beta= 0.50
     Davidson diagonalization with overlap
     ethr =  3.25E-06,  avg # of iterations =  7.6

     negative rho (up, down):  3.323E-03 3.927E-03

     total cpu time spent up to now is      360.7 secs

     total energy              =   -1133.79766982 Ry
     estimated scf accuracy    <       0.00078032 Ry

     total magnetization       =    10.00 Bohr mag/cell
     absolute magnetization    =    10.01 Bohr mag/cell

     iteration #  9     ecut=    48.00 Ry     beta= 0.50
     Davidson diagonalization with overlap
     ethr =  5.00E-07,  avg # of iterations =  4.2

     negative rho (up, down):  3.238E-03 3.908E-03

     total cpu time spent up to now is      393.8 secs

     total energy              =   -1133.79782971 Ry
     estimated scf accuracy    <       0.00008227 Ry

     total magnetization       =    10.00 Bohr mag/cell
     absolute magnetization    =    10.01 Bohr mag/cell

     iteration # 10     ecut=    48.00 Ry     beta= 0.50
     Davidson diagonalization with overlap
     ethr =  5.27E-08,  avg # of iterations =  4.3

     negative rho (up, down):  3.228E-03 3.920E-03

     total cpu time spent up to now is      434.1 secs

     total energy              =   -1133.79788908 Ry
     estimated scf accuracy    <       0.00001900 Ry

     total magnetization       =    10.00 Bohr mag/cell
     absolute magnetization    =    10.01 Bohr mag/cell

     iteration # 11     ecut=    48.00 Ry     beta= 0.50
     Davidson diagonalization with overlap
     ethr =  1.22E-08,  avg # of iterations =  3.8

     negative rho (up, down):  3.221E-03 3.929E-03

     total cpu time spent up to now is      467.5 secs

     total energy              =   -1133.79790505 Ry
     estimated scf accuracy    <       0.00000962 Ry

     total magnetization       =    10.00 Bohr mag/cell
     absolute magnetization    =    10.01 Bohr mag/cell

     iteration # 12     ecut=    48.00 Ry     beta= 0.50
     Davidson diagonalization with overlap
     ethr =  6.16E-09,  avg # of iterations =  4.0

     negative rho (up, down):  3.214E-03 3.928E-03

     total cpu time spent up to now is      500.7 secs

     total energy              =   -1133.79791190 Ry
     estimated scf accuracy    <       0.00000101 Ry

     total magnetization       =    10.00 Bohr mag/cell
     absolute magnetization    =    10.01 Bohr mag/cell

     iteration # 13     ecut=    48.00 Ry     beta= 0.50
     Davidson diagonalization with overlap
     ethr =  6.50E-10,  avg # of iterations =  4.2

     negative rho (up, down):  3.211E-03 3.927E-03

     total cpu time spent up to now is      535.7 secs

     total energy              =   -1133.79791329 Ry
     estimated scf accuracy    <       0.00000027 Ry

     total magnetization       =    10.00 Bohr mag/cell
     absolute magnetization    =    10.01 Bohr mag/cell

     iteration # 14     ecut=    48.00 Ry     beta= 0.50
     Davidson diagonalization with overlap
     ethr =  1.70E-10,  avg # of iterations =  4.1

     negative rho (up, down):  3.209E-03 3.927E-03
 
     Magnetic moment per site:
     atom:    1    charge:    0.8809    magn:    0.0007    constr:    0.0000
     atom:    2    charge:    0.8803    magn:    0.0002    constr:    0.0000
     atom:    3    charge:    0.8799    magn:    0.0002    constr:    0.0000
     atom:    4    charge:    0.8804    magn:    0.0001    constr:    0.0000
     atom:    5    charge:    0.8808    magn:    0.0006    constr:    0.0000
     atom:    6    charge:    0.8803    magn:    0.0001    constr:    0.0000
     atom:    7    charge:    2.8610    magn:    0.0001    constr:    0.0000
     atom:    8    charge:    2.8608    magn:    0.0019    constr:    0.0000
     atom:    9    charge:    2.8607    magn:    0.0054    constr:    0.0000
     atom:   10    charge:    2.8609    magn:    0.0006    constr:    0.0000
     atom:   11    charge:    2.8605    magn:    0.0105    constr:    0.0000
     atom:   12    charge:    2.8610    magn:    0.0002    constr:    0.0000
     atom:   13    charge:    2.8597    magn:    0.0055    constr:    0.0000
     atom:   14    charge:    2.8599    magn:    0.0003    constr:    0.0000
     atom:   15    charge:    2.8599    magn:    0.0000    constr:    0.0000
     atom:   16    charge:    0.8802    magn:    0.0004    constr:    0.0000
     atom:   17    charge:    0.8800    magn:    0.0002    constr:    0.0000
     atom:   18    charge:    0.8800    magn:    0.0001    constr:    0.0000
     atom:   19    charge:    0.8803    magn:    0.0006    constr:    0.0000
     atom:   20    charge:    0.8803    magn:    0.0007    constr:    0.0000
     atom:   21    charge:    0.8799    magn:    0.0004    constr:    0.0000
     atom:   22    charge:    2.8610    magn:    0.0055    constr:    0.0000
     atom:   23    charge:    0.8802    magn:    0.0002    constr:    0.0000
     atom:   24    charge:    0.8794    magn:    0.0004    constr:    0.0000
     atom:   25    charge:    0.8800    magn:    0.0003    constr:    0.0000
     atom:   26    charge:    2.8599    magn:    0.0002    constr:    0.0000
     atom:   27    charge:    2.8596    magn:    0.0019    constr:    0.0000
     atom:   28    charge:    2.8598    magn:    0.0002    constr:    0.0000
     atom:   29    charge:    2.8596    magn:    0.0002    constr:    0.0000
     atom:   30    charge:    2.8594    magn:    0.0054    constr:    0.0000
     atom:   31    charge:    2.8596    magn:    0.0006    constr:    0.0000
     atom:   32    charge:    0.8803    magn:    0.0003    constr:    0.0000
     atom:   33    charge:   11.9887    magn:    3.8624    constr:    0.0000
     atom:   34    charge:   11.9887    magn:    3.8624    constr:    0.0000

     total cpu time spent up to now is      572.5 secs

     End of self-consistent calculation

 ------ SPIN UP ------------


          k = 0.1667 0.2887 0.0000 ( 59267 PWs)   bands (ev):

   -73.0330 -72.9734 -44.7642 -44.4055 -44.3847 -44.3716 -44.3601 -44.3383
   -21.2345 -20.6484 -20.6432 -20.0933 -20.0828 -19.5746 -19.5709 -19.0869
   -18.6847 -18.6791 -18.4464 -18.4369 -18.1817 -18.0726 -18.0662 -17.8373
   -12.4724 -12.1949 -12.1881 -11.8076 -11.8061 -11.6457 -11.1803 -11.1762
   -10.3791 -10.3559 -10.1049 -10.1027  -9.5773  -9.5750  -8.8334  -8.8106
    -8.8094  -8.7528  -8.7497  -8.5839  -8.1844  -8.0517  -7.9967  -7.8170
    -7.8137  -7.4265  -7.4239  -7.2687  -7.2526  -7.1953  -7.1939  -6.9494
    -6.9410  -6.5643  -6.5196  -6.1411  -6.1400  -5.8620  -5.4058  -5.2848
    -5.2673  -5.1876  -4.9015  -4.8916  -4.4977  -4.3441  -4.3322  -3.9700
    -3.3509  -2.6255  -2.5524  -2.2452  -1.8623  -1.7970  -1.4756  -1.4594
    -1.2865  -1.1982  -1.1558  -0.4352   0.5605   0.9643   1.1180   1.1913
     1.2912   1.4876   1.5177   1.5983   1.6205   1.7824

          k = 0.1667-0.4811 0.0000 ( 59291 PWs)   bands (ev):

   -73.0330 -72.9734 -44.7642 -44.4055 -44.3847 -44.3716 -44.3601 -44.3383
   -21.1041 -20.8998 -20.7104 -20.1484 -19.7920 -19.4539 -19.3047 -19.1624
   -19.0017 -18.7664 -18.6289 -18.5317 -18.1355 -18.0774 -17.9097 -17.7115
   -12.3366 -12.1012 -12.0315 -11.8943 -11.6672 -11.6460 -11.5406 -10.9292
   -10.8781 -10.6119 -10.5106  -9.8478  -9.6812  -9.3236  -9.0982  -8.6619
    -8.6101  -8.5408  -8.3762  -8.3582  -8.1488  -8.1112  -8.0502  -8.0374
    -7.6757  -7.6106  -7.4816  -7.4616  -7.3464  -7.1588  -7.0548  -6.8518
    -6.6093  -6.3786  -6.1705  -6.1450  -5.9613  -5.9163  -5.7709  -5.7350
    -5.4388  -5.3856  -5.2023  -5.0310  -4.4360  -4.3373  -4.0791  -3.7584
    -3.3492  -2.6256  -2.5516  -2.2419  -1.8617  -1.7973  -1.4777  -1.4602
    -1.2878  -1.1979  -1.1558  -0.4392   0.4840   0.9738   1.1135   1.1564
     1.2429   1.2562   1.3777   1.8656   1.8946   2.1494

          k = 0.1667-0.0962 0.0000 ( 59226 PWs)   bands (ev):

   -73.0330 -72.9734 -44.7642 -44.4054 -44.3847 -44.3716 -44.3601 -44.3383
   -21.3009 -20.5231 -20.3339 -20.3259 -19.9769 -19.9672 -19.7935 -18.7176
   -18.7090 -18.3627 -18.3550 -18.3436 -18.2570 -18.2479 -18.0652 -18.0589
   -12.4957 -12.4897 -12.3956 -11.5695 -11.5634 -11.4151 -11.4063 -10.9143
   -10.9108  -9.9164  -9.9143  -9.6637  -9.3641  -9.3586  -9.2174  -9.2158
    -9.0294  -9.0281  -8.9153  -8.3108  -8.3091  -7.8896  -7.8860  -7.8735
    -7.8324  -7.7576  -7.6032  -7.5680  -7.1315  -7.0755  -6.9464  -6.8757
    -6.8724  -6.8400  -6.5186  -6.5154  -6.2447  -5.3477  -5.3018  -5.1306
    -5.0525  -4.7974  -4.7909  -4.7442  -4.6055  -4.5929  -4.3470  -4.3179
    -3.3525  -2.6254  -2.5532  -2.2486  -1.8642  -1.7967  -1.4738  -1.4585
    -1.2851  -1.1986  -1.1559  -0.4308   0.6424   0.9305   1.0776   1.1992
     1.2862   1.3431   1.5972   1.6022   1.7171   1.9894

          k =-0.5000-0.8660 0.0000 ( 59292 PWs)   bands (ev):

   -73.0330 -72.9734 -44.7642 -44.4055 -44.3847 -44.3716 -44.3601 -44.3383
   -21.0381 -21.0334 -20.4583 -20.4505 -19.4117 -19.4091 -19.4062 -19.3928
   -18.9794 -18.9770 -18.3122 -18.3103 -18.3051 -18.2984 -17.7817 -17.7755
   -12.0575 -12.0546 -12.0519 -12.0467 -11.8667 -11.8598 -11.3182 -11.3142
   -10.2227 -10.2196 -10.1235 -10.1194 -10.1162 -10.1143  -8.5939  -8.5344
    -8.5335  -8.5318  -8.5293  -8.5240  -7.8529  -7.8490  -7.8473  -7.8458
    -7.8103  -7.8082  -7.7748  -7.7386  -7.4764  -7.4745  -6.5993  -6.5945
    -6.3411  -6.3356  -6.2995  -6.2769  -6.1765  -6.1759  -5.7004  -5.6879
    -5.5320  -5.5298  -4.7240  -4.7095  -4.6976  -4.6654  -3.8841  -3.8537
    -3.3452  -2.6244  -2.5516  -2.2427  -1.8621  -1.7977  -1.4770  -1.4583
    -1.2947  -1.2014  -1.1562  -0.5431   0.6186   0.9963   1.1105   1.1746
     1.5460   1.5710   1.6086   1.6261   1.6767   1.8803

          k =-0.1667 0.2887 0.0000 ( 59267 PWs)   bands (ev):

   -73.0330 -72.9734 -44.7642 -44.4055 -44.3847 -44.3716 -44.3601 -44.3383
   -21.2345 -20.6483 -20.6432 -20.0933 -20.0827 -19.5746 -19.5709 -19.0869
   -18.6846 -18.6791 -18.4464 -18.4369 -18.1817 -18.0726 -18.0663 -17.8373
   -12.4723 -12.1950 -12.1881 -11.8076 -11.8061 -11.6457 -11.1802 -11.1762
   -10.3791 -10.3559 -10.1049 -10.1028  -9.5773  -9.5750  -8.8334  -8.8105
    -8.8094  -8.7529  -8.7498  -8.5838  -8.1844  -8.0517  -7.9968  -7.8170
    -7.8137  -7.4265  -7.4239  -7.2687  -7.2526  -7.1953  -7.1939  -6.9495
    -6.9411  -6.5643  -6.5196  -6.1411  -6.1400  -5.8620  -5.4059  -5.2848
    -5.2674  -5.1875  -4.9015  -4.8915  -4.4977  -4.3441  -4.3322  -3.9700
    -3.3509  -2.6255  -2.5524  -2.2452  -1.8623  -1.7970  -1.4756  -1.4594
    -1.2865  -1.1982  -1.1558  -0.4352   0.5605   0.9643   1.1180   1.1914
     1.2912   1.4876   1.5177   1.5982   1.6205   1.7824

          k = 0.3333 0.0000 0.0000 ( 59267 PWs)   bands (ev):

   -73.0330 -72.9734 -44.7642 -44.4055 -44.3847 -44.3716 -44.3600 -44.3383
   -21.2340 -20.6729 -20.6185 -20.0977 -20.0769 -19.6003 -19.5470 -19.0890
   -18.7015 -18.6575 -18.4526 -18.4322 -18.1779 -18.0954 -18.0498 -17.8363
   -12.4707 -12.2010 -12.1831 -11.8180 -11.7983 -11.6444 -11.1960 -11.1595
   -10.3797 -10.3543 -10.1196 -10.0894  -9.5829  -9.5679  -8.8338  -8.8149
    -8.8016  -8.7747  -8.7293  -8.5844  -8.1864  -8.0939  -7.9537  -7.8166
    -7.8121  -7.4328  -7.4174  -7.2911  -7.2246  -7.2047  -7.1841  -6.9548
    -6.9374  -6.6085  -6.4819  -6.1439  -6.1365  -5.8699  -5.4061  -5.3065
    -5.2332  -5.1876  -4.9195  -4.8754  -4.4903  -4.3777  -4.3113  -3.9690
    -3.3481  -2.6246  -2.5527  -2.2458  -1.8638  -1.7972  -1.4749  -1.4581
    -1.2901  -1.2007  -1.1559  -0.5075   0.6444   0.9722   1.2302   1.2661
     1.3549   1.4839   1.5345   1.5738   1.6050   1.8045

          k =-0.1667-0.4811 0.0000 ( 59291 PWs)   bands (ev):

   -73.0330 -72.9734 -44.7642 -44.4055 -44.3847 -44.3716 -44.3601 -44.3383
   -21.1041 -20.8998 -20.7104 -20.1484 -19.7920 -19.4539 -19.3047 -19.1624
   -19.0017 -18.7664 -18.6289 -18.5317 -18.1356 -18.0774 -17.9097 -17.7115
   -12.3366 -12.1012 -12.0315 -11.8943 -11.6672 -11.6460 -11.5406 -10.9292
   -10.8781 -10.6119 -10.5106  -9.8477  -9.6812  -9.3237  -9.0982  -8.6619
    -8.6100  -8.5409  -8.3762  -8.3582  -8.1487  -8.1112  -8.0503  -8.0375
    -7.6757  -7.6107  -7.4815  -7.4616  -7.3464  -7.1588  -7.0548  -6.8518
    -6.6093  -6.3786  -6.1706  -6.1450  -5.9613  -5.9163  -5.7709  -5.7350
    -5.4389  -5.3856  -5.2023  -5.0310  -4.4360  -4.3373  -4.0791  -3.7584
    -3.3492  -2.6256  -2.5516  -2.2419  -1.8617  -1.7973  -1.4777  -1.4602
    -1.2878  -1.1979  -1.1558  -0.4392   0.4840   0.9738   1.1136   1.1564
     1.2428   1.2562   1.3777   1.8656   1.8946   2.1493

          k = 0.5000-0.0962 0.0000 ( 59291 PWs)   bands (ev):

   -73.0330 -72.9734 -44.7642 -44.4055 -44.3847 -44.3716 -44.3601 -44.3383
   -21.1013 -20.9072 -20.7057 -20.1468 -19.7918 -19.4559 -19.3103 -19.1573
   -19.0030 -18.7675 -18.6186 -18.5376 -18.1244 -18.0933 -17.9067 -17.7111
   -12.3340 -12.1021 -12.0301 -11.8986 -11.6800 -11.6321 -11.5420 -10.9304
   -10.8751 -10.6094 -10.5135  -9.8461  -9.6813  -9.3243  -9.0977  -8.6523
    -8.6103  -8.5384  -8.3903  -8.3779  -8.1471  -8.0925  -8.0626  -8.0259
    -7.6718  -7.6111  -7.4808  -7.4627  -7.3409  -7.1596  -7.0559  -6.8494
    -6.6099  -6.3878  -6.1862  -6.1446  -5.9462  -5.9162  -5.7702  -5.7392
    -5.4397  -5.3885  -5.1764  -5.0446  -4.4146  -4.3656  -4.0759  -3.7581
    -3.3451  -2.6244  -2.5516  -2.2426  -1.8627  -1.7976  -1.4771  -1.4584
    -1.2947  -1.2015  -1.1562  -0.5427   0.6064   0.9922   1.0988   1.2215
     1.2867   1.3687   1.6417   1.8241   1.8764   1.9572

          k =-0.3333-0.3849 0.0000 ( 59291 PWs)   bands (ev):

   -73.0330 -72.9734 -44.7642 -44.4055 -44.3847 -44.3716 -44.3601 -44.3383
   -21.1023 -20.9045 -20.7075 -20.1465 -19.7939 -19.4541 -19.3053 -19.1608
   -19.0058 -18.7654 -18.6199 -18.5372 -18.1265 -18.0905 -17.9069 -17.7113
   -12.3358 -12.0987 -12.0329 -11.8963 -11.6688 -11.6447 -11.5416 -10.9302
   -10.8756 -10.6090 -10.5136  -9.8459  -9.6813  -9.3246  -9.0991  -8.6549
    -8.6094  -8.5402  -8.3777  -8.3767  -8.1482  -8.1001  -8.0502  -8.0400
    -7.6721  -7.6098  -7.4867  -7.4568  -7.3388  -7.1596  -7.0565  -6.8584
    -6.6083  -6.3808  -6.1695  -6.1467  -5.9579  -5.9147  -5.7702  -5.7488
    -5.4397  -5.3816  -5.1788  -5.0454  -4.4171  -4.3621  -4.0758  -3.7580
    -3.3465  -2.6248  -2.5515  -2.2424  -1.8620  -1.7976  -1.4774  -1.4590
    -1.2926  -1.2002  -1.1562  -0.5112   0.5677   0.9859   1.1100   1.2031
     1.2474   1.3839   1.4854   1.8596   1.9237   1.9758

          k = 0.5000 0.0962 0.0000 ( 59291 PWs)   bands (ev):

   -73.0330 -72.9734 -44.7642 -44.4055 -44.3847 -44.3716 -44.3601 -44.3383
   -21.1013 -20.9072 -20.7057 -20.1468 -19.7918 -19.4559 -19.3103 -19.1573
   -19.0030 -18.7675 -18.6186 -18.5376 -18.1244 -18.0933 -17.9067 -17.7111
   -12.3340 -12.1021 -12.0301 -11.8986 -11.6800 -11.6321 -11.5420 -10.9304
   -10.8751 -10.6094 -10.5136  -9.8461  -9.6814  -9.3243  -9.0977  -8.6523
    -8.6103  -8.5385  -8.3903  -8.3779  -8.1471  -8.0925  -8.0626  -8.0259
    -7.6719  -7.6110  -7.4808  -7.4627  -7.3409  -7.1596  -7.0559  -6.8494
    -6.6098  -6.3878  -6.1862  -6.1446  -5.9462  -5.9162  -5.7703  -5.7392
    -5.4398  -5.3885  -5.1764  -5.0445  -4.4146  -4.3655  -4.0759  -3.7581
    -3.3451  -2.6244  -2.5516  -2.2426  -1.8627  -1.7976  -1.4771  -1.4584
    -1.2946  -1.2015  -1.1562  -0.5427   0.6064   0.9922   1.0989   1.2215
     1.2867   1.3687   1.6416   1.8239   1.8764   1.9572

          k =-0.3333 0.3849 0.0000 ( 59291 PWs)   bands (ev):

   -73.0330 -72.9734 -44.7642 -44.4055 -44.3847 -44.3716 -44.3601 -44.3383
   -21.1023 -20.9045 -20.7075 -20.1465 -19.7938 -19.4541 -19.3053 -19.1608
   -19.0058 -18.7654 -18.6199 -18.5372 -18.1265 -18.0905 -17.9069 -17.7113
   -12.3358 -12.0987 -12.0329 -11.8963 -11.6689 -11.6448 -11.5416 -10.9302
   -10.8756 -10.6090 -10.5136  -9.8459  -9.6813  -9.3246  -9.0991  -8.6549
    -8.6094  -8.5402  -8.3778  -8.3766  -8.1482  -8.1002  -8.0501  -8.0400
    -7.6721  -7.6098  -7.4867  -7.4568  -7.3388  -7.1595  -7.0566  -6.8584
    -6.6083  -6.3808  -6.1695  -6.1467  -5.9578  -5.9148  -5.7702  -5.7488
    -5.4396  -5.3815  -5.1788  -5.0454  -4.4172  -4.3621  -4.0758  -3.7580
    -3.3465  -2.6248  -2.5515  -2.2424  -1.8620  -1.7976  -1.4774  -1.4590
    -1.2926  -1.2002  -1.1562  -0.5112   0.5676   0.9859   1.1100   1.2031
     1.2474   1.3840   1.4854   1.8596   1.9237   1.9759

          k =-0.1667-0.0962 0.0000 ( 59226 PWs)   bands (ev):

   -73.0330 -72.9734 -44.7642 -44.4054 -44.3847 -44.3716 -44.3601 -44.3383
   -21.3009 -20.5231 -20.3339 -20.3259 -19.9769 -19.9672 -19.7935 -18.7176
   -18.7090 -18.3627 -18.3550 -18.3436 -18.2570 -18.2479 -18.0652 -18.0589
   -12.4957 -12.4897 -12.3956 -11.5695 -11.5634 -11.4151 -11.4063 -10.9143
   -10.9108  -9.9165  -9.9143  -9.6637  -9.3641  -9.3585  -9.2174  -9.2158
    -9.0294  -9.0282  -8.9153  -8.3108  -8.3092  -7.8896  -7.8859  -7.8735
    -7.8323  -7.7576  -7.6032  -7.5680  -7.1315  -7.0755  -6.9465  -6.8757
    -6.8724  -6.8400  -6.5186  -6.5153  -6.2448  -5.3477  -5.3018  -5.1305
    -5.0526  -4.7974  -4.7909  -4.7442  -4.6055  -4.5929  -4.3470  -4.3179
    -3.3525  -2.6254  -2.5532  -2.2486  -1.8642  -1.7967  -1.4738  -1.4585
    -1.2851  -1.1986  -1.1559  -0.4308   0.6424   0.9305   1.0776   1.1992
     1.2862   1.3431   1.5972   1.6022   1.7172   1.9896

          k =-0.0000-0.1925 0.0000 ( 59226 PWs)   bands (ev):

   -73.0330 -72.9734 -44.7642 -44.4054 -44.3847 -44.3716 -44.3601 -44.3383
   -21.3010 -20.5184 -20.3409 -20.3274 -19.9737 -19.9632 -19.7970 -18.7172
   -18.7057 -18.3886 -18.3488 -18.3416 -18.2434 -18.2424 -18.0699 -18.0593
   -12.5019 -12.4842 -12.3949 -11.5707 -11.5622 -11.4192 -11.4010 -10.9146
   -10.9117  -9.9182  -9.9133  -9.6633  -9.3646  -9.3556  -9.2188  -9.2163
    -9.0290  -9.0289  -8.9158  -8.3118  -8.3080  -7.8895  -7.8841  -7.8572
    -7.8315  -7.7593  -7.6133  -7.5898  -7.0955  -7.0864  -6.9452  -6.8773
    -6.8722  -6.8504  -6.5193  -6.5138  -6.2454  -5.3254  -5.3151  -5.1307
    -5.0524  -4.8451  -4.7798  -4.7423  -4.5857  -4.5781  -4.3425  -4.3308
    -3.3539  -2.6259  -2.5530  -2.2483  -1.8634  -1.7966  -1.4742  -1.4591
    -1.2834  -1.1974  -1.1558  -0.3882   0.5934   0.9255   1.0004   1.1784
     1.2266   1.4080   1.5858   1.5991   1.7221   1.9836

          k = 0.5000-0.8660 0.0000 ( 59292 PWs)   bands (ev):

   -73.0330 -72.9734 -44.7642 -44.4055 -44.3847 -44.3716 -44.3601 -44.3383
   -21.0381 -21.0334 -20.4583 -20.4505 -19.4118 -19.4091 -19.4062 -19.3928
   -18.9793 -18.9771 -18.3123 -18.3102 -18.3050 -18.2984 -17.7817 -17.7755
   -12.0575 -12.0546 -12.0518 -12.0468 -11.8667 -11.8597 -11.3181 -11.3142
   -10.2227 -10.2196 -10.1235 -10.1194 -10.1162 -10.1143  -8.5939  -8.5344
    -8.5334  -8.5317  -8.5293  -8.5240  -7.8529  -7.8490  -7.8473  -7.8458
    -7.8103  -7.8082  -7.7748  -7.7386  -7.4765  -7.4746  -6.5993  -6.5944
    -6.3411  -6.3356  -6.2995  -6.2769  -6.1764  -6.1758  -5.7004  -5.6879
    -5.5322  -5.5299  -4.7239  -4.7096  -4.6976  -4.6654  -3.8841  -3.8537
    -3.3452  -2.6244  -2.5516  -2.2427  -1.8621  -1.7977  -1.4770  -1.4583
    -1.2947  -1.2014  -1.1562  -0.5431   0.6186   0.9963   1.1106   1.1746
     1.5459   1.5709   1.6086   1.6261   1.6766   1.8833

          k =-1.0000 0.0000 0.0000 ( 59292 PWs)   bands (ev):

   -73.0330 -72.9734 -44.7642 -44.4055 -44.3847 -44.3716 -44.3600 -44.3383
   -21.0617 -21.0071 -20.4630 -20.4502 -19.4237 -19.4038 -19.3946 -19.3920
   -19.0009 -18.9572 -18.3652 -18.3016 -18.2921 -18.2674 -17.7849 -17.7742
   -12.1005 -12.0544 -12.0334 -12.0205 -11.8681 -11.8577 -11.3366 -11.2963
   -10.2347 -10.2235 -10.1182 -10.1177 -10.1139 -10.1105  -8.6266  -8.5647
    -8.5367  -8.5205  -8.5035  -8.4796  -7.8635  -7.8558  -7.8516  -7.8428
    -7.8021  -7.8009  -7.7737  -7.7564  -7.5002  -7.4530  -6.5991  -6.5914
    -6.3480  -6.3327  -6.2802  -6.2738  -6.1953  -6.1593  -5.7323  -5.6609
    -5.5530  -5.5094  -4.8083  -4.7116  -4.6533  -4.6283  -3.8739  -3.8648
    -3.3505  -2.6259  -2.5518  -2.2416  -1.8616  -1.7971  -1.4776  -1.4607
    -1.2850  -1.1967  -1.1554  -0.3979   0.4491   0.9674   1.0566   1.1178
     1.2031   1.4796   1.5847   1.6338   1.6475   1.9168

 ------ SPIN DOWN ----------


          k = 0.1667 0.2887 0.0000 ( 59267 PWs)   bands (ev):

   -68.8838 -68.8188 -40.7816 -40.3497 -40.2532 -40.2280 -40.2025 -40.1763
   -21.2297 -20.6426 -20.6398 -20.0886 -20.0783 -19.5691 -19.5674 -19.0822
   -18.6786 -18.6748 -18.4417 -18.4322 -18.1761 -18.0679 -18.0625 -17.8324
   -12.4689 -12.1916 -12.1850 -11.8049 -11.8031 -11.6432 -11.1761 -11.1737
   -10.3757 -10.3524 -10.1006 -10.1002  -9.5735  -9.5724  -8.8150  -8.8059
    -8.8007  -8.7496  -8.7473  -8.5809  -8.1817  -8.0207  -7.9875  -7.8141
    -7.8109  -7.4218  -7.4209  -7.2484  -7.2340  -7.1922  -7.1914  -6.9466
    -6.9382  -6.5373  -6.5117  -6.1378  -6.1373  -5.8427  -5.4023  -5.2595
    -5.2505  -5.1844  -4.8858  -4.8742  -4.4764  -4.3275  -4.3194  -3.9529
    -1.5506   0.4818   0.5383   0.6179   0.7276   1.0632   1.1825   1.2804
     1.3337   1.4650   1.5178   1.5800   1.6329   1.6697   1.7957   1.9042
     2.0608   2.0965   2.2005   2.2560   2.2863   2.3403

          k = 0.1667-0.4811 0.0000 ( 59291 PWs)   bands (ev):

   -68.8838 -68.8188 -40.7816 -40.3497 -40.2532 -40.2280 -40.2025 -40.1763
   -21.0989 -20.8958 -20.7057 -20.1436 -19.7875 -19.4493 -19.3000 -19.1575
   -18.9970 -18.7619 -18.6225 -18.5280 -18.1289 -18.0747 -17.9048 -17.7065
   -12.3330 -12.0978 -12.0289 -11.8913 -11.6649 -11.6429 -11.5375 -10.9260
   -10.8743 -10.6079 -10.5077  -9.8440  -9.6779  -9.3201  -9.0952  -8.6324
    -8.6070  -8.5371  -8.3735  -8.3435  -8.1459  -8.0921  -8.0473  -8.0348
    -7.6725  -7.6077  -7.4785  -7.4590  -7.3256  -7.1550  -7.0521  -6.8325
    -6.6056  -6.3604  -6.1498  -6.1421  -5.9439  -5.9128  -5.7678  -5.7170
    -5.4358  -5.3693  -5.1748  -5.0200  -4.4103  -4.3292  -4.0623  -3.7410
    -1.5431   0.4756   0.5291   0.6323   0.7347   1.0114   1.0943   1.1714
     1.2135   1.3800   1.6163   1.6271   1.6726   1.8090   1.8225   2.1124
     2.1449   2.1691   2.1954   2.2595   2.2876   2.3332

          k = 0.1667-0.0962 0.0000 ( 59226 PWs)   bands (ev):

   -68.8838 -68.8188 -40.7816 -40.3496 -40.2532 -40.2280 -40.2025 -40.1763
   -21.2962 -20.5179 -20.3294 -20.3220 -19.9712 -19.9631 -19.7895 -18.7117
   -18.7044 -18.3577 -18.3496 -18.3391 -18.2520 -18.2431 -18.0607 -18.0550
   -12.4924 -12.4865 -12.3924 -11.5661 -11.5609 -11.4120 -11.4033 -10.9107
   -10.9080  -9.9130  -9.9113  -9.6600  -9.3608  -9.3552  -9.2137  -9.2124
    -9.0263  -9.0251  -8.8925  -8.3070  -8.3055  -7.8861  -7.8831  -7.8468
    -7.8278  -7.7549  -7.5825  -7.5569  -7.1005  -7.0643  -6.9434  -6.8726
    -6.8700  -6.8280  -6.5154  -6.5127  -6.2419  -5.3177  -5.2890  -5.1273
    -5.0494  -4.7781  -4.7689  -4.7275  -4.5893  -4.5778  -4.3264  -4.3077
    -1.5581   0.4926   0.5388   0.6080   0.7236   1.0458   1.0894   1.3012
     1.3684   1.5036   1.5719   1.6605   1.7010   1.7213   1.8264   1.9248
     1.9857   2.0645   2.1303   2.2284   2.2825   2.3374

          k =-0.5000-0.8660 0.0000 ( 59292 PWs)   bands (ev):

   -68.8838 -68.8188 -40.7816 -40.3497 -40.2532 -40.2280 -40.2025 -40.1763
   -21.0318 -21.0302 -20.4536 -20.4465 -19.4068 -19.4041 -19.4005 -19.3891
   -18.9747 -18.9727 -18.3079 -18.3047 -18.2975 -18.2963 -17.7766 -17.7711
   -12.0537 -12.0517 -12.0472 -12.0453 -11.8634 -11.8576 -11.3140 -11.3118
   -10.2190 -10.2166 -10.1194 -10.1157 -10.1134 -10.1112  -8.5563  -8.5315
    -8.5296  -8.5278  -8.5271  -8.5156  -7.8493  -7.8459  -7.8442  -7.8430
    -7.8061  -7.8038  -7.7539  -7.7272  -7.4737  -7.4719  -6.5955  -6.5919
    -6.3119  -6.3052  -6.2878  -6.2663  -6.1737  -6.1720  -5.6803  -5.6755
    -5.5288  -5.5270  -4.6912  -4.6890  -4.6827  -4.6628  -3.8602  -3.8430
    -1.5273   0.2689   0.5465   0.6161   0.7327   0.9999   1.1160   1.2832
     1.4984   1.5095   1.5949   1.6298   1.6677   1.7477   1.8593   1.9354
     1.9823   2.1315   2.2362   2.2614   2.3189   2.3592

          k =-0.1667 0.2887 0.0000 ( 59267 PWs)   bands (ev):

   -68.8838 -68.8188 -40.7816 -40.3497 -40.2532 -40.2280 -40.2025 -40.1763
   -21.2297 -20.6427 -20.6398 -20.0886 -20.0782 -19.5692 -19.5673 -19.0822
   -18.6786 -18.6748 -18.4417 -18.4322 -18.1761 -18.0679 -18.0625 -17.8324
   -12.4689 -12.1916 -12.1850 -11.8049 -11.8032 -11.6432 -11.1760 -11.1737
   -10.3757 -10.3524 -10.1006 -10.1002  -9.5735  -9.5724  -8.8149  -8.8058
    -8.8006  -8.7497  -8.7473  -8.5809  -8.1817  -8.0207  -7.9875  -7.8141
    -7.8109  -7.4219  -7.4209  -7.2484  -7.2340  -7.1922  -7.1913  -6.9467
    -6.9383  -6.5373  -6.5117  -6.1378  -6.1372  -5.8427  -5.4024  -5.2595
    -5.2506  -5.1843  -4.8858  -4.8742  -4.4765  -4.3276  -4.3194  -3.9529
    -1.5506   0.4818   0.5383   0.6179   0.7276   1.0632   1.1825   1.2804
     1.3337   1.4650   1.5178   1.5799   1.6329   1.6697   1.7957   1.9042
     2.0608   2.0965   2.2003   2.2558   2.2860   2.3403

          k = 0.3333 0.0000 0.0000 ( 59267 PWs)   bands (ev):

   -68.8838 -68.8188 -40.7816 -40.3497 -40.2532 -40.2280 -40.2025 -40.1763
   -21.2294 -20.6659 -20.6164 -20.0924 -20.0732 -19.5932 -19.5448 -19.0839
   -18.6940 -18.6554 -18.4472 -18.4279 -18.1729 -18.0879 -18.0476 -17.8317
   -12.4678 -12.1962 -12.1810 -11.8142 -11.7961 -11.6418 -11.1918 -11.1576
   -10.3759 -10.3513 -10.1142 -10.0877  -9.5791  -9.5657  -8.8160  -8.8080
    -8.7953  -8.7702  -8.7280  -8.5815  -8.1832  -8.0585  -7.9494  -7.8138
    -7.8095  -7.4276  -7.4149  -7.2636  -7.2149  -7.2011  -7.1822  -6.9511
    -6.9351  -6.5766  -6.4771  -6.1406  -6.1339  -5.8477  -5.4024  -5.2789
    -5.2230  -5.1846  -4.8989  -4.8629  -4.4707  -4.3549  -4.3009  -3.9520
    -1.5403   0.3388   0.5434   0.6137   0.7299   1.0275   1.1406   1.3815
     1.4863   1.5000   1.5318   1.6031   1.6772   1.6964   1.7604   1.9686
     2.0342   2.1036   2.1770   2.2656   2.2970   2.4375

          k =-0.1667-0.4811 0.0000 ( 59291 PWs)   bands (ev):

   -68.8838 -68.8188 -40.7816 -40.3497 -40.2532 -40.2280 -40.2025 -40.1763
   -21.0989 -20.8958 -20.7057 -20.1436 -19.7875 -19.4493 -19.3000 -19.1575
   -18.9970 -18.7619 -18.6225 -18.5280 -18.1289 -18.0747 -17.9048 -17.7065
   -12.3330 -12.0978 -12.0289 -11.8913 -11.6649 -11.6429 -11.5375 -10.9260
   -10.8744 -10.6079 -10.5077  -9.8440  -9.6779  -9.3202  -9.0952  -8.6324
    -8.6070  -8.5371  -8.3735  -8.3435  -8.1458  -8.0921  -8.0473  -8.0348
    -7.6725  -7.6078  -7.4784  -7.4590  -7.3256  -7.1550  -7.0521  -6.8325
    -6.6057  -6.3605  -6.1498  -6.1422  -5.9439  -5.9127  -5.7677  -5.7170
    -5.4359  -5.3693  -5.1748  -5.0200  -4.4103  -4.3292  -4.0623  -3.7410
    -1.5431   0.4756   0.5291   0.6323   0.7346   1.0114   1.0943   1.1713
     1.2135   1.3800   1.6163   1.6271   1.6726   1.8090   1.8225   2.1123
     2.1448   2.1691   2.1954   2.2594   2.2875   2.3326

          k = 0.5000-0.0962 0.0000 ( 59291 PWs)   bands (ev):

   -68.8838 -68.8188 -40.7816 -40.3497 -40.2532 -40.2280 -40.2025 -40.1763
   -21.0966 -20.9020 -20.7018 -20.1423 -19.7873 -19.4509 -19.3047 -19.1534
   -18.9981 -18.7628 -18.6141 -18.5329 -18.1194 -18.0879 -17.9024 -17.7062
   -12.3312 -12.0985 -12.0274 -11.8950 -11.6761 -11.6304 -11.5389 -10.9268
   -10.8720 -10.6060 -10.5101  -9.8424  -9.6782  -9.3208  -9.0948  -8.6260
    -8.6071  -8.5353  -8.3780  -8.3626  -8.1443  -8.0794  -8.0586  -8.0243
    -7.6692  -7.6082  -7.4777  -7.4601  -7.3217  -7.1559  -7.0528  -6.8312
    -6.6060  -6.3661  -6.1611  -6.1417  -5.9340  -5.9125  -5.7672  -5.7193
    -5.4367  -5.3711  -5.1576  -5.0293  -4.3935  -4.3504  -4.0599  -3.7407
    -1.5273   0.2707   0.5416   0.6199   0.7336   0.9959   1.0855   1.1779
     1.3394   1.5148   1.6440   1.6702   1.7146   1.8176   1.9793   2.0153
     2.1192   2.1728   2.2310   2.2602   2.3148   2.3612

          k =-0.3333-0.3849 0.0000 ( 59291 PWs)   bands (ev):

   -68.8838 -68.8188 -40.7816 -40.3497 -40.2532 -40.2280 -40.2025 -40.1763
   -21.0974 -20.8998 -20.7033 -20.1420 -19.7890 -19.4494 -19.3006 -19.1562
   -19.0005 -18.7611 -18.6151 -18.5326 -18.1211 -18.0857 -17.9025 -17.7064
   -12.3324 -12.0959 -12.0298 -11.8933 -11.6662 -11.6416 -11.5384 -10.9267
   -10.8722 -10.6056 -10.5103  -9.8425  -9.6783  -9.3209  -9.0957  -8.6276
    -8.6064  -8.5367  -8.3748  -8.3561  -8.1454  -8.0845  -8.0472  -8.0369
    -7.6695  -7.6070  -7.4831  -7.4548  -7.3206  -7.1560  -7.0534  -6.8370
    -6.6045  -6.3615  -6.1502  -6.1430  -5.9416  -5.9114  -5.7673  -5.7260
    -5.4366  -5.3668  -5.1590  -5.0295  -4.3958  -4.3476  -4.0597  -3.7408
    -1.5327   0.3289   0.5383   0.6222   0.7328   0.9897   1.1154   1.2279
     1.2509   1.4081   1.6134   1.6688   1.7447   1.9317   1.9634   2.0247
     2.0849   2.1237   2.1970   2.2443   2.3200   2.3459

          k = 0.5000 0.0962 0.0000 ( 59291 PWs)   bands (ev):

   -68.8838 -68.8188 -40.7816 -40.3497 -40.2532 -40.2280 -40.2025 -40.1763
   -21.0966 -20.9020 -20.7018 -20.1423 -19.7873 -19.4509 -19.3048 -19.1534
   -18.9981 -18.7627 -18.6141 -18.5329 -18.1194 -18.0879 -17.9024 -17.7062
   -12.3312 -12.0985 -12.0274 -11.8950 -11.6760 -11.6303 -11.5389 -10.9268
   -10.8720 -10.6060 -10.5102  -9.8424  -9.6783  -9.3208  -9.0947  -8.6260
    -8.6071  -8.5353  -8.3780  -8.3626  -8.1443  -8.0794  -8.0586  -8.0243
    -7.6692  -7.6081  -7.4777  -7.4601  -7.3217  -7.1560  -7.0528  -6.8312
    -6.6059  -6.3661  -6.1611  -6.1416  -5.9340  -5.9124  -5.7672  -5.7193
    -5.4368  -5.3711  -5.1575  -5.0293  -4.3935  -4.3503  -4.0599  -3.7407
    -1.5273   0.2707   0.5416   0.6199   0.7336   0.9959   1.0855   1.1779
     1.3394   1.5148   1.6440   1.6702   1.7146   1.8176   1.9793   2.0151
     2.1193   2.1727   2.2310   2.2602   2.3147   2.3613

          k =-0.3333 0.3849 0.0000 ( 59291 PWs)   bands (ev):

   -68.8838 -68.8188 -40.7816 -40.3497 -40.2532 -40.2280 -40.2025 -40.1763
   -21.0974 -20.8998 -20.7033 -20.1420 -19.7890 -19.4494 -19.3006 -19.1562
   -19.0005 -18.7611 -18.6151 -18.5326 -18.1211 -18.0857 -17.9025 -17.7064
   -12.3324 -12.0959 -12.0298 -11.8933 -11.6662 -11.6416 -11.5383 -10.9267
   -10.8722 -10.6056 -10.5103  -9.8425  -9.6783  -9.3208  -9.0957  -8.6276
    -8.6065  -8.5366  -8.3748  -8.3561  -8.1455  -8.0845  -8.0472  -8.0369
    -7.6694  -7.6070  -7.4831  -7.4548  -7.3206  -7.1559  -7.0534  -6.8370
    -6.6046  -6.3614  -6.1502  -6.1431  -5.9416  -5.9115  -5.7672  -5.7260
    -5.4365  -5.3668  -5.1590  -5.0295  -4.3959  -4.3476  -4.0597  -3.7408
    -1.5327   0.3289   0.5383   0.6222   0.7328   0.9897   1.1154   1.2279
     1.2510   1.4081   1.6134   1.6688   1.7447   1.9317   1.9634   2.0247
     2.0849   2.1235   2.1968   2.2440   2.3200   2.3457

          k =-0.1667-0.0962 0.0000 ( 59226 PWs)   bands (ev):

   -68.8838 -68.8188 -40.7816 -40.3496 -40.2532 -40.2280 -40.2025 -40.1763
   -21.2962 -20.5179 -20.3294 -20.3220 -19.9712 -19.9631 -19.7895 -18.7117
   -18.7044 -18.3577 -18.3496 -18.3391 -18.2520 -18.2431 -18.0607 -18.0550
   -12.4924 -12.4865 -12.3924 -11.5661 -11.5609 -11.4120 -11.4033 -10.9107
   -10.9080  -9.9130  -9.9114  -9.6600  -9.3608  -9.3552  -9.2137  -9.2125
    -9.0263  -9.0251  -8.8925  -8.3070  -8.3055  -7.8861  -7.8830  -7.8468
    -7.8277  -7.7549  -7.5825  -7.5569  -7.1006  -7.0643  -6.9435  -6.8726
    -6.8699  -6.8280  -6.5154  -6.5126  -6.2419  -5.3177  -5.2890  -5.1272
    -5.0495  -4.7781  -4.7689  -4.7276  -4.5893  -4.5778  -4.3264  -4.3077
    -1.5581   0.4926   0.5388   0.6080   0.7236   1.0458   1.0893   1.3012
     1.3685   1.5036   1.5719   1.6605   1.7010   1.7213   1.8264   1.9249
     1.9857   2.0645   2.1304   2.2286   2.2826   2.3371

          k =-0.0000-0.1925 0.0000 ( 59226 PWs)   bands (ev):

   -68.8838 -68.8188 -40.7816 -40.3496 -40.2532 -40.2280 -40.2025 -40.1763
   -21.2963 -20.5139 -20.3357 -20.3227 -19.9694 -19.9590 -19.7924 -18.7123
   -18.7008 -18.3801 -18.3443 -18.3367 -18.2411 -18.2383 -18.0650 -18.0547
   -12.4972 -12.4822 -12.3920 -11.5678 -11.5596 -11.4149 -11.3990 -10.9114
   -10.9085  -9.9149  -9.9098  -9.6599  -9.3616  -9.3527  -9.2150  -9.2125
    -9.0259  -9.0257  -8.8929  -8.3081  -8.3041  -7.8867  -7.8815  -7.8373
    -7.8250  -7.7563  -7.5906  -7.5704  -7.0801  -7.0677  -6.9423  -6.8743
    -6.8694  -6.8354  -6.5164  -6.5111  -6.2423  -5.3073  -5.2931  -5.1274
    -5.0492  -4.8132  -4.7602  -4.7246  -4.5774  -4.5664  -4.3270  -4.3129
    -1.5630   0.5304   0.6033   0.6055   0.7197   1.0695   1.1304   1.2142
     1.2864   1.5100   1.5222   1.5845   1.6644   1.7527   1.8650   1.8843
     2.0066   2.0509   2.0975   2.2427   2.2945   2.3198

          k = 0.5000-0.8660 0.0000 ( 59292 PWs)   bands (ev):

   -68.8838 -68.8188 -40.7816 -40.3497 -40.2532 -40.2280 -40.2025 -40.1763
   -21.0318 -21.0301 -20.4536 -20.4465 -19.4068 -19.4041 -19.4005 -19.3891
   -18.9747 -18.9727 -18.3080 -18.3046 -18.2976 -18.2962 -17.7766 -17.7711
   -12.0538 -12.0516 -12.0472 -12.0454 -11.8634 -11.8576 -11.3139 -11.3118
   -10.2190 -10.2166 -10.1194 -10.1157 -10.1135 -10.1112  -8.5563  -8.5316
    -8.5294  -8.5279  -8.5270  -8.5156  -7.8493  -7.8459  -7.8442  -7.8429
    -7.8061  -7.8038  -7.7539  -7.7272  -7.4738  -7.4719  -6.5954  -6.5918
    -6.3119  -6.3052  -6.2877  -6.2663  -6.1737  -6.1718  -5.6803  -5.6755
    -5.5289  -5.5270  -4.6913  -4.6889  -4.6826  -4.6629  -3.8602  -3.8430
    -1.5273   0.2689   0.5465   0.6161   0.7327   0.9999   1.1161   1.2833
     1.4983   1.5095   1.5949   1.6299   1.6677   1.7478   1.8593   1.9355
     1.9824   2.1313   2.2362   2.2616   2.3187   2.3591

          k =-1.0000 0.0000 0.0000 ( 59292 PWs)   bands (ev):

   -68.8838 -68.8188 -40.7816 -40.3497 -40.2532 -40.2280 -40.2025 -40.1763
   -21.0547 -21.0050 -20.4581 -20.4457 -19.4183 -19.3984 -19.3907 -19.3883
   -18.9937 -18.9552 -18.3549 -18.2953 -18.2897 -18.2669 -17.7799 -17.7693
   -12.0924 -12.0519 -12.0318 -12.0196 -11.8655 -11.8553 -11.3321 -11.2945
   -10.2299 -10.2189 -10.1154 -10.1149 -10.1106 -10.1078  -8.5879  -8.5596
    -8.5334  -8.5181  -8.5028  -8.4753  -7.8592  -7.8519  -7.8477  -7.8397
    -7.7980  -7.7977  -7.7548  -7.7375  -7.4957  -7.4518  -6.5962  -6.5886
    -6.3237  -6.3020  -6.2695  -6.2636  -6.1905  -6.1571  -5.7074  -5.6514
    -5.5480  -5.5081  -4.7690  -4.6856  -4.6477  -4.6269  -3.8593  -3.8451
    -1.5482   0.5263   0.5750   0.6357   0.7365   1.0492   1.0611   1.1687
     1.3193   1.4315   1.5944   1.6255   1.6448   1.6529   1.6886   1.8039
     2.0800   2.2077   2.2342   2.2788   2.2990   2.3369

     the Fermi energy is    -1.1002 ev

!    total energy              =   -1133.79791379 Ry

     total all-electron energy =     -6753.473617 Ry
     estimated scf accuracy    <       0.00000006 Ry
     smearing contrib. (-TS)   =      -0.00000000 Ry
     internal energy E=F+TS    =   -1133.79791379 Ry

     The total energy is F=E-TS. E is the sum of the following terms:
     one-electron contribution =   -3976.18665363 Ry
     hartree contribution      =    2016.22098330 Ry
     xc contribution           =    -186.07515907 Ry
     ewald contribution        =    1371.61652080 Ry
     DFT-D3 Dispersion         =      -0.12191634 Ry
     one-center paw contrib.   =    -359.25168884 Ry

     total magnetization       =    10.00 Bohr mag/cell
     absolute magnetization    =    10.01 Bohr mag/cell

     convergence has been achieved in  14 iterations

     Writing output data file ./mytmp/Crdimer0.12-0.3.save/
 
     init_run     :     18.72s CPU     20.07s WALL (       1 calls)
     electrons    :    501.75s CPU    552.26s WALL (       1 calls)

     Called by init_run:
     wfcinit      :     13.96s CPU     14.84s WALL (       1 calls)
     potinit      :      1.53s CPU      1.62s WALL (       1 calls)
     hinit0       :      1.52s CPU      1.63s WALL (       1 calls)

     Called by electrons:
     c_bands      :    397.38s CPU    430.93s WALL (      14 calls)
     sum_band     :     77.71s CPU     89.13s WALL (      14 calls)
     v_of_rho     :      4.58s CPU      4.94s WALL (      15 calls)
     newd         :     13.74s CPU     18.98s WALL (      15 calls)
     PAW_pot      :      7.40s CPU      7.48s WALL (      15 calls)
     mix_rho      :      1.00s CPU      1.03s WALL (      14 calls)

     Called by c_bands:
     init_us_2    :      5.08s CPU      5.13s WALL (     870 calls)
     cegterg      :    384.89s CPU    418.32s WALL (     420 calls)

     Called by *egterg:
     cdiaghg      :     25.75s CPU     41.23s WALL (    2765 calls)
     h_psi        :    247.13s CPU    263.15s WALL (    2795 calls)
     s_psi        :     27.10s CPU     27.32s WALL (    2795 calls)
     g_psi        :      0.69s CPU      0.72s WALL (    2345 calls)

     Called by h_psi:
     h_psi:calbec :     28.75s CPU     29.58s WALL (    2795 calls)
     vloc_psi     :    188.65s CPU    203.51s WALL (    2795 calls)
     add_vuspsi   :     27.64s CPU     27.93s WALL (    2795 calls)

     General routines
     calbec       :     38.43s CPU     39.51s WALL (    3215 calls)
     fft          :      6.55s CPU     10.04s WALL (     369 calls)
     ffts         :      0.11s CPU      0.12s WALL (      58 calls)
     fftw         :    195.84s CPU    212.43s WALL (  247940 calls)
     interpolate  :      0.41s CPU      0.44s WALL (      30 calls)
 
     Parallel routines
     fft_scatt_xy :     30.49s CPU     31.79s WALL (  248367 calls)
     fft_scatt_yz :     84.33s CPU     99.29s WALL (  248367 calls)
 
     PWSCF        :   8m42.53s CPU   9m36.69s WALL

 
   This run was terminated on:  12:35:12  31Mar2021            

=------------------------------------------------------------------------------=
   JOB DONE.
=------------------------------------------------------------------------------=
