
     Program PWSCF v.6.7MaX starts on 31Mar2021 at 14:35:22 

     This program is part of the open-source Quantum ESPRESSO suite
     for quantum simulation of materials; please cite
         "P. Giannozzi et al., J. Phys.:Condens. Matter 21 395502 (2009);
         "P. Giannozzi et al., J. Phys.:Condens. Matter 29 465901 (2017);
          URL http://www.quantum-espresso.org", 
     in publications or presentations arising from this work. More details at
     http://www.quantum-espresso.org/quote

     Parallel version (MPI), running on    48 processors

     MPI processes distributed on     1 nodes
     R & G space division:  proc/nbgrp/npool/nimage =      48
     Reading input from Crdimer0.14-0.4.scf.in

     Current dimensions of program PWSCF are:
     Max number of different atomic species (ntypx) = 10
     Max number of k-points (npk) =  40000
     Max angular momentum in pseudopotentials (lmaxx) =  3
     file N.pbe-n-kjpaw_psl.1.0.0.UPF: wavefunction(s)  2S renormalized
     file Cr.pbe-spn-kjpaw_psl.1.0.0.UPF: wavefunction(s)  3S 3P 3D renormalized
     file Cr.pbe-spn-kjpaw_psl.1.0.0.UPF: wavefunction(s)  3S 3P 3D renormalized

     --------------------------------------------
     Parameters for DFT-D3 Dispersion Correction:
     --------------------------------------------
       Reference C6 values for interpolation: 

         atom   Coordination number   C6
         B          0.000           214.36
         B          0.971           150.74
         B          1.944           106.23
         B          2.913            62.89
         B          4.586            56.06
         N          0.000            50.54
         N          0.994            44.25
         N          2.014            39.35
         N          2.990            31.16
         Cr1        0.000          1381.48
         Cr1        1.827           571.38
         Cr1       10.619           306.69
         Cr2        0.000          1381.48
         Cr2        1.827           571.38
         Cr2       10.619           306.69

       Values used:

         atom   Coordination number  R0_AB[au]  C6      C8
         B          3.337            3.039     62.89   2505.96
         B          3.336            3.039     62.89   2505.98
         B          3.336            3.039     62.89   2505.99
         B          3.335            3.039     62.89   2506.01
         B          3.354            3.039     62.88   2505.52
         B          3.335            3.039     62.89   2506.00
         N          3.135            2.478     31.22    688.69
         N          3.143            2.478     31.21    688.62
         N          3.135            2.478     31.22    688.68
         N          3.134            2.478     31.22    688.70
         N          3.152            2.478     31.21    688.54
         N          3.135            2.478     31.22    688.69
         N          3.147            2.478     31.21    688.58
         N          3.134            2.478     31.22    688.70
         N          3.134            2.478     31.22    688.70
         B          3.351            3.039     62.88   2505.61
         B          3.336            3.039     62.89   2505.98
         B          3.335            3.039     62.89   2506.00
         B          3.354            3.039     62.88   2505.52
         B          3.337            3.039     62.89   2505.96
         B          3.351            3.039     62.88   2505.61
         N          3.147            2.478     31.21    688.58
         B          3.336            3.039     62.89   2505.99
         B          3.356            3.039     62.88   2505.46
         B          3.336            3.039     62.89   2506.00
         N          3.135            2.478     31.22    688.69
         N          3.143            2.478     31.21    688.62
         N          3.134            2.478     31.22    688.70
         N          3.134            2.478     31.22    688.70
         N          3.135            2.478     31.22    688.68
         N          3.134            2.478     31.22    688.70
         B          3.336            3.039     62.89   2506.00
         Cr1        0.766            3.252   1276.30 117788.40
         Cr2        0.766            3.252   1276.30 117788.40

         Molecular C6 ( Ry / a.u.^6 ) =     77947.75


     Subspace diagonalization in iterative solution of the eigenvalue problem:
     one sub-group per band group will be used
     scalapack distributed-memory algorithm (size of sub-group:  6*  6 procs)

 
     Parallelization info
     --------------------
     sticks:   dense  smooth     PW     G-vecs:    dense   smooth      PW
     Min         235      98     26                36277     9874    1408
     Max         236      99     27                36282     9883    1425
     Sum       11311    4741   1285              1741401   474235   68095
 


     bravais-lattice index     =            4
     lattice parameter (alat)  =      18.9275  a.u.
     unit-cell volume          =   10553.3021 (a.u.)^3
     number of atoms/cell      =           34
     number of atomic types    =            4
     number of electrons       =       156.00
     number of Kohn-Sham states=           94
     kinetic-energy cutoff     =      48.0000  Ry
     charge density cutoff     =     457.0000  Ry
     scf convergence threshold =      1.0E-07
     mixing beta               =       0.5000
     number of iterations used =            8  plain     mixing
     Exchange-correlation= SLA  PW   PBX  PBC
                           (   1   4   3   4   0   0   0)

     celldm(1)=  18.927497  celldm(2)=   0.000000  celldm(3)=   1.797125
     celldm(4)=   0.000000  celldm(5)=   0.000000  celldm(6)=   0.000000

     crystal axes: (cart. coord. in units of alat)
               a(1) = (   1.000000   0.000000   0.000000 )  
               a(2) = (  -0.500000   0.866025   0.000000 )  
               a(3) = (   0.000000   0.000000   1.797125 )  

     reciprocal axes: (cart. coord. in units 2 pi/alat)
               b(1) = (  1.000000  0.577350  0.000000 )  
               b(2) = (  0.000000  1.154701  0.000000 )  
               b(3) = (  0.000000  0.000000  0.556444 )  


     PseudoPot. # 1 for B  read from file:
     /home/sf05/q-e-qe-6.7MaX-Release/pseudo/B.pbe-n-kjpaw_psl.1.0.0.UPF
     MD5 check sum: d9c678ba5d3b2fd7b74e61139c9288d8
     Pseudo is Projector augmented-wave + core cor, Zval =  3.0
     Generated using "atomic" code by A. Dal Corso  v.5.1.2
     Shape of augmentation charge: PSQ
     Using radial grid of 1059 points,  4 beta functions with: 
                l(1) =   0
                l(2) =   0
                l(3) =   1
                l(4) =   1
     Q(r) pseudized with 0 coefficients 


     PseudoPot. # 2 for N  read from file:
     /home/sf05/q-e-qe-6.7MaX-Release/pseudo/N.pbe-n-kjpaw_psl.1.0.0.UPF
     MD5 check sum: e0e4e94a9c4025c5b51bd7d8793849bd
     Pseudo is Projector augmented-wave + core cor, Zval =  5.0
     Generated using "atomic" code by A. Dal Corso  v.5.1.2
     Shape of augmentation charge: PSQ
     Using radial grid of 1085 points,  4 beta functions with: 
                l(1) =   0
                l(2) =   0
                l(3) =   1
                l(4) =   1
     Q(r) pseudized with 0 coefficients 


     PseudoPot. # 3 for Cr read from file:
     /home/sf05/q-e-qe-6.7MaX-Release/pseudo/Cr.pbe-spn-kjpaw_psl.1.0.0.UPF
     MD5 check sum: 198f1a2427a48552563eee314eba32ba
     Pseudo is Projector augmented-wave + core cor, Zval = 14.0
     Generated using &quot;atomic&quot; code by A. Dal Corso  v.6.3
     Shape of augmentation charge: PSQ
     Using radial grid of 1183 points,  6 beta functions with: 
                l(1) =   0
                l(2) =   0
                l(3) =   1
                l(4) =   1
                l(5) =   2
                l(6) =   2
     Q(r) pseudized with 0 coefficients 


     PseudoPot. # 4 for Cr read from file:
     /home/sf05/q-e-qe-6.7MaX-Release/pseudo/Cr.pbe-spn-kjpaw_psl.1.0.0.UPF
     MD5 check sum: 198f1a2427a48552563eee314eba32ba
     Pseudo is Projector augmented-wave + core cor, Zval = 14.0
     Generated using &quot;atomic&quot; code by A. Dal Corso  v.6.3
     Shape of augmentation charge: PSQ
     Using radial grid of 1183 points,  6 beta functions with: 
                l(1) =   0
                l(2) =   0
                l(3) =   1
                l(4) =   1
                l(5) =   2
                l(6) =   2
     Q(r) pseudized with 0 coefficients 


     atomic species   valence    mass     pseudopotential
        B              3.00    10.81100     B ( 1.00)
        N              5.00    14.00674     N ( 1.00)
        Cr1           14.00    51.99610     Cr( 1.00)
        Cr2           14.00    51.99610     Cr( 1.00)

     Starting magnetic structure 
     atomic species   magnetization
        B            0.000
        N            0.000
        Cr1          1.000
        Cr2          1.000

     No symmetry found



   Cartesian axes

     site n.     atom                  positions (alat units)
         1           B   tau(   1) = (  -0.1250000   0.2165064   0.8985623  )
         2           B   tau(   2) = (   0.3750000   0.6495191   0.8985623  )
         3           B   tau(   3) = (   0.2500000   0.0000000   0.8985623  )
         4           B   tau(   4) = (   0.7500000   0.0000000   0.8985623  )
         5           B   tau(   5) = (   0.1250000   0.2165064   0.8985623  )
         6           B   tau(   6) = (  -0.3750000   0.6495191   0.8985623  )
         7           N   tau(   7) = (   0.7500005   0.2886748   0.8985623  )
         8           N   tau(   8) = (   0.3750005   0.5051812   0.8985623  )
         9           N   tau(   9) = (   0.3750005   0.0721685   0.8985623  )
        10           N   tau(  10) = (   0.6250005   0.0721685   0.8985623  )
        11           N   tau(  11) = (   0.2500005   0.2886748   0.8985623  )
        12           N   tau(  12) = (   0.6250005   0.5051812   0.8985623  )
        13           N   tau(  13) = (   0.0000005   0.2886748   0.8985623  )
        14           N   tau(  14) = (   0.2500005   0.7216875   0.8985623  )
        15           N   tau(  15) = (  -0.2499995   0.7216875   0.8985623  )
        16           B   tau(  16) = (   0.0000000   0.4330127   0.8985623  )
        17           B   tau(  17) = (   0.1250000   0.6495191   0.8985623  )
        18           B   tau(  18) = (  -0.1250000   0.6495191   0.8985623  )
        19           B   tau(  19) = (   0.3750000   0.2165064   0.8985623  )
        20           B   tau(  20) = (   0.6250000   0.2165064   0.8985623  )
        21           B   tau(  21) = (   0.5000000   0.4330127   0.8985623  )
        22           N   tau(  22) = (   0.5000005   0.2886748   0.8985623  )
        23           B   tau(  23) = (  -0.2500000   0.4330127   0.8985623  )
        24           B   tau(  24) = (   0.2500000   0.4330127   0.8985623  )
        25           B   tau(  25) = (   0.5000000   0.0000000   0.8985623  )
        26           N   tau(  26) = (  -0.1249995   0.5051812   0.8985623  )
        27           N   tau(  27) = (   0.1250005   0.5051812   0.8985623  )
        28           N   tau(  28) = (   0.0000005   0.7216875   0.8985623  )
        29           N   tau(  29) = (   0.5000005   0.7216875   0.8985623  )
        30           N   tau(  30) = (   0.1250005   0.0721685   0.8985623  )
        31           N   tau(  31) = (   0.8750005   0.0721685   0.8985623  )
        32           B   tau(  32) = (   0.0000000   0.0000000   0.8985623  )
        33           Cr1 tau(  33) = (   0.3900000   0.3464102   1.2040735  )
        34           Cr2 tau(  34) = (   0.1100000   0.3464102   1.2040735  )

     number of k points=    15  Gaussian smearing, width (Ry)=  0.0000
                       cart. coord. in units 2pi/alat
        k(    1) = (   0.1666667   0.2886751   0.0000000), wk =   0.0740741
        k(    2) = (   0.1666667  -0.4811252   0.0000000), wk =   0.0740741
        k(    3) = (   0.1666667  -0.0962250   0.0000000), wk =   0.0740741
        k(    4) = (  -0.5000000  -0.8660254   0.0000000), wk =   0.0370370
        k(    5) = (  -0.1666667   0.2886751   0.0000000), wk =   0.0740741
        k(    6) = (   0.3333333   0.0000000   0.0000000), wk =   0.0740741
        k(    7) = (  -0.1666667  -0.4811252   0.0000000), wk =   0.0740741
        k(    8) = (   0.5000000  -0.0962250   0.0000000), wk =   0.0740741
        k(    9) = (  -0.3333333  -0.3849002   0.0000000), wk =   0.0740741
        k(   10) = (   0.5000000   0.0962250   0.0000000), wk =   0.0740741
        k(   11) = (  -0.3333333   0.3849002   0.0000000), wk =   0.0740741
        k(   12) = (  -0.1666667  -0.0962250   0.0000000), wk =   0.0740741
        k(   13) = (  -0.0000000  -0.1924501   0.0000000), wk =   0.0740741
        k(   14) = (   0.5000000  -0.8660254   0.0000000), wk =   0.0370370
        k(   15) = (  -1.0000000   0.0000000   0.0000000), wk =   0.0370370

     Dense  grid:  1741401 G-vectors     FFT dimensions: ( 135, 135, 240)

     Smooth grid:   474235 G-vectors     FFT dimensions: (  90,  90, 160)

     Estimated max dynamical RAM per process >     218.62 MB

     Estimated total dynamical RAM >      10.25 GB
     Generating pointlists ...
     new r_m :   0.0595 (alat units)  1.1269 (a.u.) for type    1
     new r_m :   0.0595 (alat units)  1.1269 (a.u.) for type    2
     new r_m :   0.1155 (alat units)  2.1861 (a.u.) for type    3
     new r_m :   0.1155 (alat units)  2.1861 (a.u.) for type    4

     Initial potential from superposition of free atoms

     starting charge  155.99382, renormalised to  156.00000

     negative rho (up, down):  6.710E-03 4.655E-04
     Starting wfcs are  148 randomized atomic wfcs
     Checking if some PAW data can be deallocated... 

     total cpu time spent up to now is       20.4 secs

     Self-consistent Calculation

     iteration #  1     ecut=    48.00 Ry     beta= 0.50
     Davidson diagonalization with overlap
     ethr =  1.00E-02,  avg # of iterations =  2.8

     negative rho (up, down):  4.899E-03 2.910E-03

     total cpu time spent up to now is       64.0 secs

     total energy              =   -1130.73304036 Ry
     estimated scf accuracy    <      11.36841843 Ry

     total magnetization       =    12.00 Bohr mag/cell
     absolute magnetization    =    12.12 Bohr mag/cell

     iteration #  2     ecut=    48.00 Ry     beta= 0.50
     Davidson diagonalization with overlap
     ethr =  7.29E-03,  avg # of iterations =  2.8

     negative rho (up, down):  8.811E-03 7.904E-03

     total cpu time spent up to now is      104.8 secs

     total energy              =   -1132.93842223 Ry
     estimated scf accuracy    <       3.73392945 Ry

     total magnetization       =    10.00 Bohr mag/cell
     absolute magnetization    =    10.08 Bohr mag/cell

     iteration #  3     ecut=    48.00 Ry     beta= 0.50
     Davidson diagonalization with overlap
     ethr =  2.39E-03,  avg # of iterations =  7.5

     negative rho (up, down):  4.124E-03 3.872E-03

     total cpu time spent up to now is      147.0 secs

     total energy              =   -1133.56519439 Ry
     estimated scf accuracy    <       0.85707402 Ry

     total magnetization       =    10.89 Bohr mag/cell
     absolute magnetization    =    10.96 Bohr mag/cell

     iteration #  4     ecut=    48.00 Ry     beta= 0.50
     Davidson diagonalization with overlap
     ethr =  5.49E-04,  avg # of iterations =  6.7

     negative rho (up, down):  7.387E-03 7.690E-03

     total cpu time spent up to now is      187.0 secs

     total energy              =   -1133.77661787 Ry
     estimated scf accuracy    <       0.48387383 Ry

     total magnetization       =    10.00 Bohr mag/cell
     absolute magnetization    =    10.01 Bohr mag/cell

     iteration #  5     ecut=    48.00 Ry     beta= 0.50
     Davidson diagonalization with overlap
     ethr =  3.10E-04,  avg # of iterations =  6.1

     negative rho (up, down):  4.569E-03 4.441E-03

     total cpu time spent up to now is      228.8 secs

     total energy              =   -1133.81331075 Ry
     estimated scf accuracy    <       0.07514467 Ry

     total magnetization       =    10.00 Bohr mag/cell
     absolute magnetization    =    10.02 Bohr mag/cell

     iteration #  6     ecut=    48.00 Ry     beta= 0.50
     Davidson diagonalization with overlap
     ethr =  4.82E-05,  avg # of iterations =  8.9

     negative rho (up, down):  3.695E-03 3.955E-03

     total cpu time spent up to now is      275.4 secs

     total energy              =   -1133.82441959 Ry
     estimated scf accuracy    <       0.02192523 Ry

     total magnetization       =    10.00 Bohr mag/cell
     absolute magnetization    =    10.02 Bohr mag/cell

     iteration #  7     ecut=    48.00 Ry     beta= 0.50
     Davidson diagonalization with overlap
     ethr =  1.41E-05,  avg # of iterations =  6.7

     negative rho (up, down):  3.341E-03 3.837E-03

     total cpu time spent up to now is      315.5 secs

     total energy              =   -1133.82820055 Ry
     estimated scf accuracy    <       0.00260699 Ry

     total magnetization       =    10.00 Bohr mag/cell
     absolute magnetization    =    10.01 Bohr mag/cell

     iteration #  8     ecut=    48.00 Ry     beta= 0.50
     Davidson diagonalization with overlap
     ethr =  1.67E-06,  avg # of iterations =  8.2

     negative rho (up, down):  3.225E-03 3.780E-03

     total cpu time spent up to now is      362.3 secs

     total energy              =   -1133.82881387 Ry
     estimated scf accuracy    <       0.00045451 Ry

     total magnetization       =    10.00 Bohr mag/cell
     absolute magnetization    =    10.01 Bohr mag/cell

     iteration #  9     ecut=    48.00 Ry     beta= 0.50
     Davidson diagonalization with overlap
     ethr =  2.91E-07,  avg # of iterations =  2.6

     negative rho (up, down):  3.163E-03 3.774E-03

     total cpu time spent up to now is      396.8 secs

     total energy              =   -1133.82891788 Ry
     estimated scf accuracy    <       0.00007385 Ry

     total magnetization       =    10.00 Bohr mag/cell
     absolute magnetization    =    10.01 Bohr mag/cell

     iteration # 10     ecut=    48.00 Ry     beta= 0.50
     Davidson diagonalization with overlap
     ethr =  4.73E-08,  avg # of iterations =  4.1

     negative rho (up, down):  3.150E-03 3.787E-03

     total cpu time spent up to now is      440.3 secs

     total energy              =   -1133.82897028 Ry
     estimated scf accuracy    <       0.00001729 Ry

     total magnetization       =    10.00 Bohr mag/cell
     absolute magnetization    =    10.01 Bohr mag/cell

     iteration # 11     ecut=    48.00 Ry     beta= 0.50
     Davidson diagonalization with overlap
     c_bands:  1 eigenvalues not converged
     ethr =  1.11E-08,  avg # of iterations =  4.3

     negative rho (up, down):  3.140E-03 3.793E-03

     total cpu time spent up to now is      482.2 secs

     total energy              =   -1133.82898481 Ry
     estimated scf accuracy    <       0.00000480 Ry

     total magnetization       =    10.00 Bohr mag/cell
     absolute magnetization    =    10.01 Bohr mag/cell

     iteration # 12     ecut=    48.00 Ry     beta= 0.50
     Davidson diagonalization with overlap
     ethr =  3.08E-09,  avg # of iterations =  4.5

     negative rho (up, down):  3.136E-03 3.800E-03

     total cpu time spent up to now is      519.9 secs

     total energy              =   -1133.82898883 Ry
     estimated scf accuracy    <       0.00000088 Ry

     total magnetization       =    10.00 Bohr mag/cell
     absolute magnetization    =    10.01 Bohr mag/cell

     iteration # 13     ecut=    48.00 Ry     beta= 0.50
     Davidson diagonalization with overlap
     ethr =  5.66E-10,  avg # of iterations =  4.6

     negative rho (up, down):  3.133E-03 3.803E-03

     total cpu time spent up to now is      557.4 secs

     total energy              =   -1133.82899025 Ry
     estimated scf accuracy    <       0.00000022 Ry

     total magnetization       =    10.00 Bohr mag/cell
     absolute magnetization    =    10.01 Bohr mag/cell

     iteration # 14     ecut=    48.00 Ry     beta= 0.50
     Davidson diagonalization with overlap
     ethr =  1.44E-10,  avg # of iterations =  4.7

     negative rho (up, down):  3.132E-03 3.803E-03
 
     Magnetic moment per site:
     atom:    1    charge:    0.8808    magn:    0.0008    constr:    0.0000
     atom:    2    charge:    0.8802    magn:    0.0006    constr:    0.0000
     atom:    3    charge:    0.8800    magn:    0.0001    constr:    0.0000
     atom:    4    charge:    0.8804    magn:    0.0001    constr:    0.0000
     atom:    5    charge:    0.8801    magn:    0.0002    constr:    0.0000
     atom:    6    charge:    0.8804    magn:    0.0001    constr:    0.0000
     atom:    7    charge:    2.8610    magn:    0.0003    constr:    0.0000
     atom:    8    charge:    2.8607    magn:    0.0044    constr:    0.0000
     atom:    9    charge:    2.8608    magn:    0.0016    constr:    0.0000
     atom:   10    charge:    2.8609    magn:    0.0004    constr:    0.0000
     atom:   11    charge:    2.8605    magn:    0.0074    constr:    0.0000
     atom:   12    charge:    2.8610    magn:    0.0008    constr:    0.0000
     atom:   13    charge:    2.8596    magn:    0.0052    constr:    0.0000
     atom:   14    charge:    2.8598    magn:    0.0003    constr:    0.0000
     atom:   15    charge:    2.8599    magn:    0.0000    constr:    0.0000
     atom:   16    charge:    0.8805    magn:   -0.0000    constr:    0.0000
     atom:   17    charge:    0.8799    magn:    0.0006    constr:    0.0000
     atom:   18    charge:    0.8800    magn:    0.0001    constr:    0.0000
     atom:   19    charge:    0.8796    magn:    0.0002    constr:    0.0000
     atom:   20    charge:    0.8802    magn:    0.0008    constr:    0.0000
     atom:   21    charge:    0.8802    magn:   -0.0000    constr:    0.0000
     atom:   22    charge:    2.8609    magn:    0.0052    constr:    0.0000
     atom:   23    charge:    0.8803    magn:    0.0001    constr:    0.0000
     atom:   24    charge:    0.8789    magn:   -0.0002    constr:    0.0000
     atom:   25    charge:    0.8799    magn:    0.0001    constr:    0.0000
     atom:   26    charge:    2.8599    magn:    0.0008    constr:    0.0000
     atom:   27    charge:    2.8596    magn:    0.0044    constr:    0.0000
     atom:   28    charge:    2.8598    magn:    0.0002    constr:    0.0000
     atom:   29    charge:    2.8596    magn:    0.0002    constr:    0.0000
     atom:   30    charge:    2.8595    magn:    0.0016    constr:    0.0000
     atom:   31    charge:    2.8596    magn:    0.0004    constr:    0.0000
     atom:   32    charge:    0.8802    magn:    0.0001    constr:    0.0000
     atom:   33    charge:   12.4869    magn:    4.2157    constr:    0.0000
     atom:   34    charge:   12.4868    magn:    4.2157    constr:    0.0000

     total cpu time spent up to now is      595.4 secs

     End of self-consistent calculation

 ------ SPIN UP ------------


          k = 0.1667 0.2887 0.0000 ( 59267 PWs)   bands (ev):

   -72.8820 -72.8726 -44.4380 -44.3481 -44.2841 -44.2751 -44.2542 -44.2451
   -21.2506 -20.6643 -20.6591 -20.1123 -20.0955 -19.5910 -19.5860 -19.1028
   -18.7014 -18.6948 -18.4649 -18.4496 -18.1982 -18.0888 -18.0804 -17.8527
   -12.4881 -12.2132 -12.2020 -11.8248 -11.8209 -11.6621 -11.1953 -11.1928
   -10.3956 -10.3711 -10.1212 -10.1182  -9.5925  -9.5916  -8.8433  -8.8286
    -8.8238  -8.7703  -8.7644  -8.5997  -8.2004  -8.0539  -8.0193  -7.8341
    -7.8293  -7.4421  -7.4402  -7.2895  -7.2567  -7.2118  -7.2097  -6.9680
    -6.9545  -6.5679  -6.5415  -6.1573  -6.1561  -5.8740  -5.4218  -5.2950
    -5.2812  -5.2036  -4.9208  -4.8976  -4.5088  -4.3594  -4.3425  -3.9821
    -2.8999  -2.0680  -1.9925  -1.8547  -1.6392  -1.6038  -1.4765  -1.4632
    -1.4028  -1.3562  -1.2997  -0.6972   0.6658   0.9615   1.0535   1.1628
     1.2758   1.4655   1.4987   1.5815   1.6005   1.7762

          k = 0.1667-0.4811 0.0000 ( 59291 PWs)   bands (ev):

   -72.8820 -72.8726 -44.4380 -44.3480 -44.2841 -44.2752 -44.2543 -44.2450
   -21.1206 -20.9150 -20.7266 -20.1645 -19.8077 -19.4700 -19.3200 -19.1786
   -19.0174 -18.7826 -18.6454 -18.5465 -18.1530 -18.0912 -17.9256 -17.7269
   -12.3524 -12.1174 -12.0480 -11.9097 -11.6841 -11.6620 -11.5561 -10.9451
   -10.8941 -10.6274 -10.5262  -9.8640  -9.6967  -9.3394  -9.1144  -8.6712
    -8.6265  -8.5567  -8.3922  -8.3692  -8.1649  -8.1261  -8.0667  -8.0533
    -7.6925  -7.6268  -7.4978  -7.4772  -7.3593  -7.1743  -7.0709  -6.8630
    -6.6254  -6.3916  -6.1794  -6.1611  -5.9755  -5.9326  -5.7871  -5.7474
    -5.4546  -5.4013  -5.2136  -5.0432  -4.4476  -4.3491  -4.0921  -3.7696
    -2.8970  -2.0680  -1.9925  -1.8511  -1.6382  -1.6035  -1.4794  -1.4638
    -1.4031  -1.3559  -1.3003  -0.7016   0.5761   0.9520   1.0807   1.1122
     1.2160   1.2373   1.3615   1.8400   1.9068   2.1245

          k = 0.1667-0.0962 0.0000 ( 59226 PWs)   bands (ev):

   -72.8820 -72.8726 -44.4380 -44.3481 -44.2841 -44.2751 -44.2542 -44.2450
   -21.3169 -20.5399 -20.3490 -20.3420 -19.9918 -19.9845 -19.8086 -18.7322
   -18.7269 -18.3813 -18.3665 -18.3612 -18.2758 -18.2607 -18.0802 -18.0741
   -12.5136 -12.5036 -12.4115 -11.5853 -11.5798 -11.4341 -11.4197 -10.9296
   -10.9272  -9.9321  -9.9304  -9.6795  -9.3812  -9.3733  -9.2334  -9.2317
    -9.0453  -9.0436  -8.9265  -8.3263  -8.3255  -7.9064  -7.9013  -7.8844
    -7.8484  -7.7737  -7.6114  -7.5850  -7.1373  -7.0956  -6.9630  -6.8913
    -6.8889  -6.8533  -6.5341  -6.5321  -6.2608  -5.3504  -5.3227  -5.1466
    -5.0686  -4.8131  -4.7944  -4.7601  -4.6222  -4.6025  -4.3557  -4.3340
    -2.9031  -2.0680  -1.9924  -1.8583  -1.6411  -1.6041  -1.4738  -1.4626
    -1.4024  -1.3565  -1.2991  -0.6927   0.7746   0.9319   1.0042   1.1825
     1.2673   1.3265   1.5737   1.5822   1.6991   1.9244

          k =-0.5000-0.8660 0.0000 ( 59292 PWs)   bands (ev):

   -72.8820 -72.8726 -44.4380 -44.3481 -44.2841 -44.2752 -44.2542 -44.2450
   -21.0541 -21.0496 -20.4731 -20.4671 -19.4331 -19.4263 -19.4146 -19.4100
   -18.9961 -18.9914 -18.3314 -18.3285 -18.3190 -18.3102 -17.7964 -17.7918
   -12.0760 -12.0722 -12.0669 -12.0602 -11.8820 -11.8766 -11.3327 -11.3308
   -10.2379 -10.2361 -10.1393 -10.1346 -10.1332 -10.1295  -8.5913  -8.5530
    -8.5510  -8.5492  -8.5476  -8.5425  -7.8677  -7.8659  -7.8643  -7.8612
    -7.8256  -7.8237  -7.7829  -7.7570  -7.4945  -7.4885  -6.6141  -6.6121
    -6.3603  -6.3250  -6.3220  -6.2952  -6.1940  -6.1899  -5.7085  -5.7049
    -5.5499  -5.5442  -4.7296  -4.7136  -4.7132  -4.6898  -3.8895  -3.8711
    -2.8859  -2.0664  -1.9930  -1.8533  -1.6387  -1.6047  -1.4795  -1.4648
    -1.4079  -1.3602  -1.2989  -0.8188   0.7551   1.0546   1.0935   1.1764
     1.4277   1.5412   1.5886   1.6136   1.6488   1.7749

          k =-0.1667 0.2887 0.0000 ( 59267 PWs)   bands (ev):

   -72.8820 -72.8726 -44.4380 -44.3481 -44.2841 -44.2751 -44.2542 -44.2451
   -21.2506 -20.6644 -20.6591 -20.1123 -20.0955 -19.5911 -19.5860 -19.1028
   -18.7014 -18.6947 -18.4650 -18.4496 -18.1982 -18.0888 -18.0804 -17.8527
   -12.4881 -12.2132 -12.2020 -11.8248 -11.8209 -11.6621 -11.1953 -11.1927
   -10.3956 -10.3711 -10.1212 -10.1182  -9.5925  -9.5916  -8.8433  -8.8285
    -8.8238  -8.7704  -8.7644  -8.5997  -8.2005  -8.0539  -8.0193  -7.8341
    -7.8292  -7.4421  -7.4402  -7.2895  -7.2566  -7.2118  -7.2097  -6.9681
    -6.9545  -6.5678  -6.5415  -6.1574  -6.1561  -5.8740  -5.4219  -5.2950
    -5.2812  -5.2035  -4.9208  -4.8976  -4.5088  -4.3594  -4.3425  -3.9821
    -2.8999  -2.0680  -1.9925  -1.8547  -1.6392  -1.6038  -1.4765  -1.4632
    -1.4028  -1.3562  -1.2997  -0.6972   0.6658   0.9616   1.0535   1.1628
     1.2758   1.4655   1.4987   1.5815   1.6005   1.7762

          k = 0.3333 0.0000 0.0000 ( 59267 PWs)   bands (ev):

   -72.8820 -72.8726 -44.4380 -44.3481 -44.2841 -44.2751 -44.2542 -44.2451
   -21.2501 -20.6911 -20.6321 -20.1125 -20.0937 -19.6184 -19.5607 -19.1051
   -18.7188 -18.6718 -18.4672 -18.4494 -18.1934 -18.1125 -18.0639 -17.8518
   -12.4870 -12.2150 -12.2007 -11.8349 -11.8137 -11.6602 -11.2141 -11.1738
   -10.3948 -10.3707 -10.1355 -10.1050  -9.5991  -9.5835  -8.8455  -8.8306
    -8.8168  -8.7929  -8.7433  -8.6004  -8.2026  -8.1058  -7.9668  -7.8325
    -7.8283  -7.4486  -7.4336  -7.2955  -7.2451  -7.2219  -7.1991  -6.9695
    -6.9549  -6.6219  -6.4948  -6.1602  -6.1523  -5.8811  -5.4219  -5.3124
    -5.2516  -5.2038  -4.9317  -4.8894  -4.4997  -4.3901  -4.3252  -3.9808
    -2.8928  -2.0667  -1.9928  -1.8563  -1.6405  -1.6046  -1.4765  -1.4635
    -1.4052  -1.3592  -1.2988  -0.7788   0.7907   1.0387   1.1630   1.2397
     1.3009   1.4489   1.5131   1.5602   1.5898   1.7691

          k =-0.1667-0.4811 0.0000 ( 59291 PWs)   bands (ev):

   -72.8820 -72.8726 -44.4380 -44.3480 -44.2841 -44.2752 -44.2543 -44.2450
   -21.1206 -20.9150 -20.7266 -20.1645 -19.8077 -19.4700 -19.3200 -19.1786
   -19.0175 -18.7826 -18.6454 -18.5465 -18.1530 -18.0912 -17.9256 -17.7269
   -12.3524 -12.1174 -12.0480 -11.9097 -11.6841 -11.6620 -11.5561 -10.9451
   -10.8941 -10.6274 -10.5262  -9.8639  -9.6967  -9.3395  -9.1144  -8.6712
    -8.6265  -8.5568  -8.3921  -8.3692  -8.1648  -8.1261  -8.0668  -8.0534
    -7.6925  -7.6268  -7.4978  -7.4772  -7.3593  -7.1742  -7.0709  -6.8630
    -6.6255  -6.3916  -6.1794  -6.1612  -5.9755  -5.9325  -5.7871  -5.7474
    -5.4547  -5.4013  -5.2136  -5.0432  -4.4476  -4.3491  -4.0921  -3.7696
    -2.8970  -2.0680  -1.9925  -1.8511  -1.6382  -1.6035  -1.4794  -1.4638
    -1.4031  -1.3559  -1.3003  -0.7016   0.5761   0.9520   1.0807   1.1122
     1.2160   1.2373   1.3615   1.8401   1.9069   2.1248

          k = 0.5000-0.0962 0.0000 ( 59291 PWs)   bands (ev):

   -72.8820 -72.8726 -44.4379 -44.3481 -44.2841 -44.2751 -44.2542 -44.2451
   -21.1174 -20.9237 -20.7209 -20.1626 -19.8078 -19.4717 -19.3272 -19.1726
   -19.0187 -18.7831 -18.6343 -18.5535 -18.1401 -18.1093 -17.9219 -17.7266
   -12.3503 -12.1183 -12.0459 -11.9146 -11.6979 -11.6461 -11.5582 -10.9462
   -10.8910 -10.6250 -10.5291  -9.8618  -9.6972  -9.3404  -9.1138  -8.6599
    -8.6274  -8.5543  -8.4021  -8.3967  -8.1626  -8.1054  -8.0807  -8.0403
    -7.6879  -7.6275  -7.4966  -7.4787  -7.3527  -7.1755  -7.0720  -6.8627
    -6.6260  -6.3994  -6.1993  -6.1606  -5.9592  -5.9320  -5.7862  -5.7500
    -5.4559  -5.4008  -5.1885  -5.0590  -4.4231  -4.3811  -4.0876  -3.7694
    -2.8860  -2.0664  -1.9930  -1.8534  -1.6392  -1.6047  -1.4795  -1.4648
    -1.4078  -1.3603  -1.2990  -0.8186   0.7401   1.0366   1.1125   1.1811
     1.2821   1.3365   1.5344   1.7639   1.8477   1.8855

          k =-0.3333-0.3849 0.0000 ( 59291 PWs)   bands (ev):

   -72.8820 -72.8726 -44.4379 -44.3481 -44.2841 -44.2752 -44.2542 -44.2451
   -21.1185 -20.9207 -20.7231 -20.1623 -19.8099 -19.4699 -19.3215 -19.1763
   -19.0222 -18.7809 -18.6359 -18.5528 -18.1427 -18.1061 -17.9221 -17.7269
   -12.3517 -12.1151 -12.0489 -11.9125 -11.6858 -11.6600 -11.5572 -10.9458
   -10.8913 -10.6244 -10.5295  -9.8620  -9.6973  -9.3404  -9.1149  -8.6636
    -8.6257  -8.5564  -8.3942  -8.3897  -8.1643  -8.1132  -8.0665  -8.0562
    -7.6885  -7.6256  -7.5041  -7.4717  -7.3514  -7.1756  -7.0726  -6.8706
    -6.6239  -6.3922  -6.1817  -6.1633  -5.9711  -5.9305  -5.7864  -5.7611
    -5.4557  -5.3944  -5.1893  -5.0597  -4.4265  -4.3774  -4.0871  -3.7696
    -2.8896  -2.0671  -1.9928  -1.8526  -1.6385  -1.6043  -1.4793  -1.4645
    -1.4065  -1.3588  -1.2995  -0.7828   0.6835   1.0398   1.1084   1.1502
     1.2330   1.3570   1.3861   1.8227   1.8970   1.9257

          k = 0.5000 0.0962 0.0000 ( 59291 PWs)   bands (ev):

   -72.8820 -72.8726 -44.4379 -44.3481 -44.2841 -44.2751 -44.2542 -44.2451
   -21.1174 -20.9237 -20.7209 -20.1626 -19.8078 -19.4717 -19.3272 -19.1726
   -19.0187 -18.7831 -18.6343 -18.5535 -18.1401 -18.1093 -17.9219 -17.7266
   -12.3503 -12.1183 -12.0459 -11.9146 -11.6979 -11.6460 -11.5582 -10.9462
   -10.8910 -10.6250 -10.5291  -9.8618  -9.6973  -9.3404  -9.1137  -8.6599
    -8.6274  -8.5543  -8.4022  -8.3967  -8.1626  -8.1054  -8.0807  -8.0403
    -7.6880  -7.6274  -7.4967  -7.4788  -7.3527  -7.1756  -7.0719  -6.8627
    -6.6259  -6.3993  -6.1993  -6.1605  -5.9592  -5.9320  -5.7863  -5.7501
    -5.4559  -5.4008  -5.1885  -5.0590  -4.4230  -4.3811  -4.0876  -3.7695
    -2.8860  -2.0664  -1.9930  -1.8534  -1.6392  -1.6047  -1.4795  -1.4648
    -1.4078  -1.3603  -1.2990  -0.8186   0.7401   1.0366   1.1125   1.1811
     1.2821   1.3364   1.5344   1.7639   1.8477   1.8855

          k =-0.3333 0.3849 0.0000 ( 59291 PWs)   bands (ev):

   -72.8820 -72.8726 -44.4379 -44.3481 -44.2841 -44.2752 -44.2542 -44.2451
   -21.1185 -20.9207 -20.7231 -20.1623 -19.8099 -19.4699 -19.3215 -19.1763
   -19.0222 -18.7809 -18.6358 -18.5528 -18.1427 -18.1061 -17.9221 -17.7269
   -12.3517 -12.1151 -12.0490 -11.9125 -11.6858 -11.6601 -11.5572 -10.9459
   -10.8913 -10.6244 -10.5296  -9.8621  -9.6973  -9.3404  -9.1149  -8.6636
    -8.6257  -8.5563  -8.3943  -8.3897  -8.1644  -8.1132  -8.0665  -8.0562
    -7.6884  -7.6256  -7.5042  -7.4717  -7.3514  -7.1756  -7.0727  -6.8706
    -6.6239  -6.3922  -6.1817  -6.1633  -5.9711  -5.9306  -5.7864  -5.7611
    -5.4556  -5.3944  -5.1893  -5.0597  -4.4265  -4.3774  -4.0871  -3.7696
    -2.8896  -2.0671  -1.9928  -1.8526  -1.6385  -1.6043  -1.4793  -1.4645
    -1.4065  -1.3588  -1.2995  -0.7828   0.6835   1.0398   1.1084   1.1502
     1.2330   1.3570   1.3861   1.8228   1.8971   1.9257

          k =-0.1667-0.0962 0.0000 ( 59226 PWs)   bands (ev):

   -72.8820 -72.8726 -44.4380 -44.3481 -44.2841 -44.2751 -44.2542 -44.2450
   -21.3169 -20.5399 -20.3489 -20.3420 -19.9918 -19.9845 -19.8086 -18.7321
   -18.7269 -18.3813 -18.3665 -18.3612 -18.2758 -18.2607 -18.0802 -18.0741
   -12.5136 -12.5036 -12.4115 -11.5853 -11.5798 -11.4342 -11.4197 -10.9296
   -10.9272  -9.9321  -9.9304  -9.6795  -9.3812  -9.3732  -9.2334  -9.2318
    -9.0453  -9.0436  -8.9265  -8.3264  -8.3255  -7.9064  -7.9012  -7.8844
    -7.8484  -7.7737  -7.6114  -7.5850  -7.1372  -7.0956  -6.9630  -6.8913
    -6.8888  -6.8533  -6.5341  -6.5320  -6.2609  -5.3504  -5.3227  -5.1465
    -5.0687  -4.8131  -4.7943  -4.7601  -4.6222  -4.6025  -4.3557  -4.3340
    -2.9031  -2.0680  -1.9924  -1.8583  -1.6411  -1.6041  -1.4738  -1.4626
    -1.4024  -1.3565  -1.2991  -0.6927   0.7746   0.9319   1.0042   1.1825
     1.2673   1.3265   1.5738   1.5822   1.6991   1.9244

          k =-0.0000-0.1925 0.0000 ( 59226 PWs)   bands (ev):

   -72.8820 -72.8726 -44.4380 -44.3480 -44.2841 -44.2751 -44.2542 -44.2451
   -21.3171 -20.5340 -20.3616 -20.3394 -19.9924 -19.9754 -19.8128 -18.7369
   -18.7177 -18.4064 -18.3691 -18.3547 -18.2569 -18.2567 -18.0886 -18.0717
   -12.5157 -12.5024 -12.4107 -11.5897 -11.5763 -11.4334 -11.4181 -10.9319
   -10.9267  -9.9351  -9.9277  -9.6795  -9.3814  -9.3711  -9.2348  -9.2314
    -9.0450  -9.0445  -8.9271  -8.3285  -8.3227  -7.9065  -7.9005  -7.8651
    -7.8462  -7.7757  -7.6404  -7.5919  -7.1168  -7.0874  -6.9613  -6.8951
    -6.8869  -6.8664  -6.5370  -6.5282  -6.2616  -5.3480  -5.3145  -5.1468
    -5.0684  -4.8634  -4.7894  -4.7518  -4.5966  -4.5910  -4.3647  -4.3354
    -2.9065  -2.0687  -1.9922  -1.8575  -1.6404  -1.6037  -1.4740  -1.4625
    -1.4014  -1.3550  -1.2995  -0.6451   0.6896   0.8588   1.0002   1.1562
     1.2196   1.3805   1.5573   1.6052   1.6907   1.9661

          k = 0.5000-0.8660 0.0000 ( 59292 PWs)   bands (ev):

   -72.8820 -72.8726 -44.4380 -44.3481 -44.2841 -44.2752 -44.2542 -44.2450
   -21.0542 -21.0496 -20.4731 -20.4671 -19.4331 -19.4264 -19.4146 -19.4100
   -18.9961 -18.9913 -18.3314 -18.3285 -18.3191 -18.3101 -17.7963 -17.7918
   -12.0760 -12.0722 -12.0670 -12.0601 -11.8820 -11.8766 -11.3328 -11.3308
   -10.2379 -10.2361 -10.1394 -10.1346 -10.1332 -10.1295  -8.5913  -8.5530
    -8.5511  -8.5492  -8.5475  -8.5423  -7.8677  -7.8659  -7.8643  -7.8612
    -7.8257  -7.8237  -7.7829  -7.7570  -7.4945  -7.4886  -6.6140  -6.6120
    -6.3603  -6.3250  -6.3220  -6.2952  -6.1940  -6.1897  -5.7085  -5.7049
    -5.5500  -5.5443  -4.7296  -4.7136  -4.7131  -4.6898  -3.8895  -3.8711
    -2.8859  -2.0664  -1.9930  -1.8533  -1.6387  -1.6047  -1.4795  -1.4648
    -1.4079  -1.3602  -1.2989  -0.8188   0.7551   1.0546   1.0935   1.1764
     1.4277   1.5412   1.5886   1.6136   1.6488   1.7751

          k =-1.0000 0.0000 0.0000 ( 59292 PWs)   bands (ev):

   -72.8820 -72.8726 -44.4380 -44.3481 -44.2841 -44.2751 -44.2542 -44.2450
   -21.0799 -21.0207 -20.4831 -20.4623 -19.4446 -19.4124 -19.4120 -19.4080
   -19.0187 -18.9715 -18.3800 -18.3332 -18.2951 -18.2810 -17.8039 -17.7865
   -12.1157 -12.0766 -12.0463 -12.0332 -11.8876 -11.8711 -11.3544 -11.3105
   -10.2531 -10.2381 -10.1367 -10.1353 -10.1269 -10.1231  -8.6353  -8.5819
    -8.5603  -8.5287  -8.5189  -8.4926  -7.8839  -7.8768  -7.8635  -7.8551
    -7.8199  -7.8150  -7.7967  -7.7584  -7.5188  -7.4669  -6.6180  -6.6050
    -6.3700  -6.3177  -6.3037  -6.2891  -6.2132  -6.1736  -5.7411  -5.6810
    -5.5710  -5.5235  -4.8232  -4.7155  -4.6718  -4.6388  -3.8958  -3.8670
    -2.9007  -2.0684  -1.9924  -1.8504  -1.6381  -1.6031  -1.4795  -1.4632
    -1.4011  -1.3546  -1.3007  -0.6548   0.5341   0.8464   1.0996   1.1102
     1.1477   1.4684   1.5534   1.6228   1.6356   1.9348

 ------ SPIN DOWN ----------


          k = 0.1667 0.2887 0.0000 ( 59267 PWs)   bands (ev):

   -68.6867 -68.6759 -40.3750 -40.2692 -40.1103 -40.0997 -40.0507 -40.0397
   -21.2467 -20.6612 -20.6547 -20.1081 -20.0921 -19.5883 -19.5812 -19.0989
   -18.6978 -18.6896 -18.4607 -18.4460 -18.1935 -18.0853 -18.0767 -17.8486
   -12.4856 -12.2104 -12.1999 -11.8225 -11.8186 -11.6600 -11.1931 -11.1898
   -10.3927 -10.3686 -10.1189 -10.1150  -9.5901  -9.5890  -8.8314  -8.8210
    -8.8178  -8.7684  -8.7616  -8.5974  -8.1981  -8.0301  -8.0097  -7.8316
    -7.8270  -7.4389  -7.4370  -7.2704  -7.2435  -7.2099  -7.2068  -6.9654
    -6.9523  -6.5468  -6.5334  -6.1548  -6.1535  -5.8583  -5.4188  -5.2763
    -5.2661  -5.2009  -4.9061  -4.8855  -4.4928  -4.3449  -4.3326  -3.9685
    -1.4495   0.3986   0.8615   1.0488   1.0986   1.1638   1.2578   1.3211
     1.4079   1.4947   1.5257   1.5712   1.6460   1.7224   1.8700   1.9925
     2.0479   2.1311   2.1486   2.1991   2.2631   2.3374

          k = 0.1667-0.4811 0.0000 ( 59291 PWs)   bands (ev):

   -68.6867 -68.6759 -40.3751 -40.2692 -40.1103 -40.0997 -40.0507 -40.0396
   -21.1164 -20.9118 -20.7227 -20.1605 -19.8040 -19.4661 -19.3162 -19.1744
   -19.0136 -18.7788 -18.6400 -18.5434 -18.1473 -18.0890 -17.9213 -17.7227
   -12.3498 -12.1149 -12.0458 -11.9074 -11.6821 -11.6594 -11.5537 -10.9425
   -10.8912 -10.6246 -10.5238  -9.8609  -9.6943  -9.3366  -9.1120  -8.6482
    -8.6240  -8.5537  -8.3900  -8.3576  -8.1624  -8.1091  -8.0645  -8.0508
    -7.6897  -7.6243  -7.4953  -7.4749  -7.3419  -7.1712  -7.0686  -6.8475
    -6.6223  -6.3766  -6.1639  -6.1586  -5.9603  -5.9294  -5.7844  -5.7327
    -5.4521  -5.3866  -5.1920  -5.0342  -4.4280  -4.3424  -4.0784  -3.7565
    -1.4402   0.3872   0.8353   1.0222   1.0573   1.1226   1.1807   1.2501
     1.2990   1.4529   1.5451   1.7407   1.7901   1.8291   1.8861   2.0847
     2.1309   2.1463   2.1777   2.2195   2.2819   2.3261

          k = 0.1667-0.0962 0.0000 ( 59226 PWs)   bands (ev):

   -68.6867 -68.6759 -40.3750 -40.2692 -40.1103 -40.0996 -40.0507 -40.0396
   -21.3131 -20.5355 -20.3454 -20.3386 -19.9873 -19.9809 -19.8053 -18.7275
   -18.7228 -18.3768 -18.3629 -18.3570 -18.2714 -18.2565 -18.0762 -18.0708
   -12.5109 -12.5014 -12.4092 -11.5827 -11.5777 -11.4313 -11.4176 -10.9269
   -10.9247  -9.9294  -9.9282  -9.6765  -9.3786  -9.3708  -9.2304  -9.2289
    -9.0430  -9.0411  -8.9081  -8.3232  -8.3225  -7.9035  -7.8989  -7.8631
    -7.8445  -7.7714  -7.5952  -7.5746  -7.1130  -7.0846  -6.9603  -6.8888
    -6.8867  -6.8430  -6.5314  -6.5297  -6.2583  -5.3290  -5.3099  -5.1438
    -5.0659  -4.7973  -4.7793  -4.7455  -4.6085  -4.5904  -4.3398  -4.3246
    -1.4588   0.4125   0.8808   1.0115   1.0797   1.1497   1.1699   1.3359
     1.4297   1.5115   1.5917   1.6532   1.7788   1.8213   1.8945   1.9245
     2.0327   2.0714   2.1309   2.1659   2.2223   2.3448

          k =-0.5000-0.8660 0.0000 ( 59292 PWs)   bands (ev):

   -68.6867 -68.6759 -40.3751 -40.2693 -40.1103 -40.0997 -40.0507 -40.0396
   -21.0513 -21.0447 -20.4694 -20.4636 -19.4283 -19.4222 -19.4106 -19.4068
   -18.9936 -18.9863 -18.3264 -18.3246 -18.3179 -18.3037 -17.7920 -17.7881
   -12.0725 -12.0701 -12.0656 -12.0570 -11.8796 -11.8746 -11.3307 -11.3278
   -10.2352 -10.2338 -10.1362 -10.1318 -10.1306 -10.1270  -8.5634  -8.5498
    -8.5481  -8.5466  -8.5406  -8.5380  -7.8652  -7.8634  -7.8617  -7.8590
    -7.8218  -7.8205  -7.7662  -7.7460  -7.4929  -7.4855  -6.6111  -6.6097
    -6.3338  -6.3102  -6.3059  -6.2853  -6.1919  -6.1864  -5.6953  -5.6914
    -5.5480  -5.5408  -4.7115  -4.7017  -4.6903  -4.6856  -3.8733  -3.8612
    -1.4175   0.1529   0.8548   1.0226   1.0937   1.1465   1.2510   1.3960
     1.4677   1.5370   1.5862   1.7029   1.7375   1.8863   1.9218   1.9346
     2.0002   2.0571   2.1904   2.2442   2.2968   2.3596

          k =-0.1667 0.2887 0.0000 ( 59267 PWs)   bands (ev):

   -68.6867 -68.6759 -40.3750 -40.2692 -40.1103 -40.0997 -40.0507 -40.0397
   -21.2467 -20.6613 -20.6547 -20.1081 -20.0921 -19.5883 -19.5812 -19.0989
   -18.6979 -18.6895 -18.4607 -18.4459 -18.1935 -18.0853 -18.0767 -17.8486
   -12.4856 -12.2104 -12.1999 -11.8226 -11.8186 -11.6600 -11.1932 -11.1897
   -10.3928 -10.3685 -10.1189 -10.1150  -9.5902  -9.5890  -8.8314  -8.8210
    -8.8178  -8.7685  -8.7616  -8.5973  -8.1982  -8.0301  -8.0097  -7.8316
    -7.8269  -7.4389  -7.4370  -7.2705  -7.2435  -7.2099  -7.2068  -6.9655
    -6.9524  -6.5468  -6.5334  -6.1548  -6.1535  -5.8583  -5.4189  -5.2763
    -5.2661  -5.2008  -4.9061  -4.8854  -4.4929  -4.3449  -4.3326  -3.9685
    -1.4495   0.3986   0.8615   1.0488   1.0986   1.1638   1.2578   1.3211
     1.4079   1.4947   1.5257   1.5711   1.6460   1.7224   1.8700   1.9924
     2.0480   2.1311   2.1486   2.1991   2.2631   2.3375

          k = 0.3333 0.0000 0.0000 ( 59267 PWs)   bands (ev):

   -68.6867 -68.6759 -40.3750 -40.2692 -40.1103 -40.0996 -40.0507 -40.0397
   -21.2463 -20.6855 -20.6303 -20.1082 -20.0906 -19.6126 -19.5587 -19.1008
   -18.7127 -18.6701 -18.4626 -18.4458 -18.1895 -18.1059 -18.0619 -17.8478
   -12.4847 -12.2114 -12.1991 -11.8318 -11.8119 -11.6581 -11.2108 -11.1721
   -10.3919 -10.3683 -10.1313 -10.1035  -9.5963  -9.5816  -8.8333  -8.8243
    -8.8104  -8.7894  -8.7420  -8.5981  -8.2000  -8.0768  -7.9627  -7.8302
    -7.8261  -7.4445  -7.4314  -7.2739  -7.2359  -7.2188  -7.1975  -6.9664
    -6.9529  -6.5954  -6.4903  -6.1574  -6.1501  -5.8635  -5.4188  -5.2923
    -5.2410  -5.2012  -4.9148  -4.8791  -4.4858  -4.3713  -4.3162  -3.9677
    -1.4350   0.2325   0.8904   1.0370   1.0945   1.1742   1.2243   1.4301
     1.4521   1.4963   1.5473   1.6238   1.7851   1.8614   1.8963   1.9319
     2.0275   2.0792   2.1537   2.1953   2.2844   2.3737

          k =-0.1667-0.4811 0.0000 ( 59291 PWs)   bands (ev):

   -68.6867 -68.6759 -40.3751 -40.2692 -40.1103 -40.0997 -40.0507 -40.0396
   -21.1164 -20.9118 -20.7227 -20.1605 -19.8040 -19.4661 -19.3162 -19.1744
   -19.0136 -18.7788 -18.6400 -18.5434 -18.1473 -18.0890 -17.9213 -17.7227
   -12.3498 -12.1148 -12.0458 -11.9074 -11.6821 -11.6594 -11.5537 -10.9425
   -10.8912 -10.6246 -10.5237  -9.8609  -9.6943  -9.3366  -9.1120  -8.6482
    -8.6240  -8.5537  -8.3899  -8.3576  -8.1624  -8.1091  -8.0645  -8.0509
    -7.6897  -7.6244  -7.4953  -7.4749  -7.3419  -7.1712  -7.0686  -6.8475
    -6.6223  -6.3766  -6.1639  -6.1586  -5.9603  -5.9294  -5.7844  -5.7327
    -5.4521  -5.3865  -5.1920  -5.0342  -4.4280  -4.3425  -4.0784  -3.7565
    -1.4402   0.3872   0.8353   1.0222   1.0573   1.1226   1.1807   1.2501
     1.2990   1.4529   1.5452   1.7407   1.7901   1.8291   1.8861   2.0847
     2.1310   2.1464   2.1777   2.2193   2.2821   2.3262

          k = 0.5000-0.0962 0.0000 ( 59291 PWs)   bands (ev):

   -68.6867 -68.6759 -40.3750 -40.2693 -40.1103 -40.0997 -40.0507 -40.0397
   -21.1136 -20.9195 -20.7177 -20.1588 -19.8040 -19.4676 -19.3225 -19.1693
   -19.0146 -18.7790 -18.6306 -18.5494 -18.1364 -18.1043 -17.9183 -17.7225
   -12.3481 -12.1155 -12.0438 -11.9118 -11.6948 -11.6446 -11.5557 -10.9434
   -10.8885 -10.6225 -10.5264  -9.8589  -9.6948  -9.3375  -9.1114  -8.6401
    -8.6247  -8.5516  -8.3944  -8.3808  -8.1604  -8.0943  -8.0772  -8.0391
    -7.6857  -7.6250  -7.4943  -7.4763  -7.3370  -7.1724  -7.0694  -6.8474
    -6.6227  -6.3817  -6.1787  -6.1581  -5.9489  -5.9289  -5.7836  -5.7344
    -5.4532  -5.3865  -5.1733  -5.0458  -4.4085  -4.3671  -4.0752  -3.7564
    -1.4176   0.1547   0.8496   1.0206   1.0863   1.1246   1.1865   1.2709
     1.3534   1.6066   1.7092   1.7541   1.8306   1.9049   1.9586   1.9913
     2.0666   2.1483   2.2105   2.2412   2.2924   2.3518

          k =-0.3333-0.3849 0.0000 ( 59291 PWs)   bands (ev):

   -68.6867 -68.6759 -40.3750 -40.2692 -40.1103 -40.0997 -40.0507 -40.0397
   -21.1146 -20.9168 -20.7196 -20.1586 -19.8059 -19.4660 -19.3176 -19.1725
   -19.0177 -18.7772 -18.6319 -18.5488 -18.1384 -18.1017 -17.9184 -17.7227
   -12.3492 -12.1128 -12.0466 -11.9100 -11.6836 -11.6575 -11.5547 -10.9431
   -10.8887 -10.6220 -10.5269  -9.8592  -9.6949  -9.3374  -9.1123  -8.6427
    -8.6232  -8.5533  -8.3915  -8.3724  -8.1620  -8.0999  -8.0644  -8.0533
    -7.6862  -7.6232  -7.5010  -7.4701  -7.3362  -7.1725  -7.0700  -6.8529
    -6.6208  -6.3768  -6.1658  -6.1602  -5.9573  -5.9277  -5.7838  -5.7426
    -5.4531  -5.3822  -5.1742  -5.0458  -4.4114  -4.3641  -4.0749  -3.7566
    -1.4253   0.2200   0.8420   1.0184   1.0712   1.1468   1.1964   1.2629
     1.3361   1.5154   1.6839   1.7721   1.8454   1.8774   1.9540   2.0275
     2.0618   2.0894   2.1765   2.2238   2.3032   2.3285

          k = 0.5000 0.0962 0.0000 ( 59291 PWs)   bands (ev):

   -68.6867 -68.6759 -40.3750 -40.2693 -40.1103 -40.0997 -40.0507 -40.0397
   -21.1136 -20.9195 -20.7177 -20.1588 -19.8040 -19.4676 -19.3225 -19.1693
   -19.0146 -18.7790 -18.6306 -18.5494 -18.1364 -18.1043 -17.9183 -17.7225
   -12.3481 -12.1156 -12.0438 -11.9118 -11.6948 -11.6446 -11.5557 -10.9434
   -10.8885 -10.6225 -10.5264  -9.8589  -9.6949  -9.3375  -9.1114  -8.6401
    -8.6247  -8.5517  -8.3944  -8.3808  -8.1604  -8.0943  -8.0772  -8.0390
    -7.6857  -7.6249  -7.4943  -7.4764  -7.3370  -7.1725  -7.0694  -6.8474
    -6.6226  -6.3817  -6.1786  -6.1580  -5.9489  -5.9288  -5.7837  -5.7344
    -5.4533  -5.3865  -5.1733  -5.0458  -4.4085  -4.3671  -4.0752  -3.7564
    -1.4176   0.1547   0.8496   1.0205   1.0863   1.1246   1.1865   1.2709
     1.3533   1.6066   1.7092   1.7541   1.8306   1.9050   1.9586   1.9914
     2.0665   2.1484   2.2104   2.2413   2.2910   2.3514

          k =-0.3333 0.3849 0.0000 ( 59291 PWs)   bands (ev):

   -68.6867 -68.6759 -40.3750 -40.2692 -40.1103 -40.0997 -40.0507 -40.0397
   -21.1146 -20.9168 -20.7196 -20.1586 -19.8058 -19.4660 -19.3176 -19.1725
   -19.0177 -18.7772 -18.6319 -18.5488 -18.1384 -18.1017 -17.9184 -17.7227
   -12.3492 -12.1128 -12.0466 -11.9100 -11.6836 -11.6575 -11.5547 -10.9431
   -10.8887 -10.6219 -10.5269  -9.8592  -9.6949  -9.3374  -9.1123  -8.6427
    -8.6233  -8.5533  -8.3915  -8.3724  -8.1620  -8.0999  -8.0644  -8.0532
    -7.6861  -7.6232  -7.5010  -7.4700  -7.3363  -7.1725  -7.0701  -6.8529
    -6.6208  -6.3768  -6.1658  -6.1602  -5.9573  -5.9278  -5.7838  -5.7426
    -5.4530  -5.3821  -5.1742  -5.0458  -4.4114  -4.3641  -4.0748  -3.7565
    -1.4253   0.2200   0.8420   1.0184   1.0712   1.1468   1.1964   1.2629
     1.3361   1.5154   1.6839   1.7721   1.8454   1.8774   1.9540   2.0275
     2.0619   2.0893   2.1765   2.2239   2.3030   2.3279

          k =-0.1667-0.0962 0.0000 ( 59226 PWs)   bands (ev):

   -68.6867 -68.6759 -40.3750 -40.2692 -40.1103 -40.0996 -40.0507 -40.0396
   -21.3131 -20.5355 -20.3454 -20.3386 -19.9873 -19.9809 -19.8053 -18.7275
   -18.7229 -18.3769 -18.3629 -18.3570 -18.2714 -18.2565 -18.0762 -18.0708
   -12.5109 -12.5014 -12.4091 -11.5827 -11.5777 -11.4313 -11.4176 -10.9269
   -10.9247  -9.9294  -9.9282  -9.6765  -9.3786  -9.3708  -9.2304  -9.2289
    -9.0430  -9.0412  -8.9081  -8.3233  -8.3225  -7.9035  -7.8988  -7.8631
    -7.8444  -7.7714  -7.5952  -7.5746  -7.1130  -7.0846  -6.9604  -6.8888
    -6.8866  -6.8430  -6.5314  -6.5297  -6.2584  -5.3290  -5.3099  -5.1437
    -5.0660  -4.7973  -4.7793  -4.7455  -4.6085  -4.5904  -4.3398  -4.3246
    -1.4588   0.4125   0.8808   1.0115   1.0796   1.1497   1.1699   1.3359
     1.4297   1.5115   1.5918   1.6531   1.7788   1.8214   1.8944   1.9245
     2.0328   2.0714   2.1310   2.1658   2.2224   2.3440

          k =-0.0000-0.1925 0.0000 ( 59226 PWs)   bands (ev):

   -68.6867 -68.6759 -40.3750 -40.2692 -40.1103 -40.0997 -40.0507 -40.0396
   -21.3133 -20.5304 -20.3569 -20.3358 -19.9886 -19.9722 -19.8090 -18.7324
   -18.7141 -18.3991 -18.3649 -18.3508 -18.2550 -18.2535 -18.0843 -18.0679
   -12.5122 -12.5008 -12.4084 -11.5871 -11.5742 -11.4302 -11.4164 -10.9292
   -10.9241  -9.9325  -9.9253  -9.6767  -9.3790  -9.3687  -9.2318  -9.2284
    -9.0425  -9.0422  -8.9085  -8.3254  -8.3196  -7.9040  -7.8982  -7.8517
    -7.8399  -7.7731  -7.6171  -7.5784  -7.1019  -7.0751  -6.9589  -6.8924
    -6.8845  -6.8525  -6.5345  -6.5259  -6.2590  -5.3303  -5.3008  -5.1440
    -5.0657  -4.8366  -4.7747  -4.7384  -4.5903  -4.5812  -4.3491  -4.3228
    -1.4655   0.5379   0.8600   0.9934   1.0859   1.1417   1.1745   1.3132
     1.3711   1.4715   1.5268   1.5980   1.7439   1.8221   1.8896   1.9763
     2.0429   2.0729   2.1203   2.1754   2.2261   2.3000

          k = 0.5000-0.8660 0.0000 ( 59292 PWs)   bands (ev):

   -68.6867 -68.6759 -40.3751 -40.2693 -40.1103 -40.0997 -40.0507 -40.0396
   -21.0513 -21.0447 -20.4694 -20.4636 -19.4283 -19.4223 -19.4106 -19.4067
   -18.9937 -18.9862 -18.3265 -18.3246 -18.3179 -18.3037 -17.7920 -17.7881
   -12.0726 -12.0701 -12.0657 -12.0569 -11.8796 -11.8746 -11.3307 -11.3277
   -10.2352 -10.2339 -10.1362 -10.1318 -10.1306 -10.1270  -8.5634  -8.5498
    -8.5482  -8.5465  -8.5406  -8.5379  -7.8652  -7.8634  -7.8617  -7.8590
    -7.8219  -7.8205  -7.7662  -7.7460  -7.4929  -7.4856  -6.6111  -6.6096
    -6.3338  -6.3102  -6.3059  -6.2853  -6.1919  -6.1862  -5.6953  -5.6914
    -5.5481  -5.5409  -4.7115  -4.7017  -4.6902  -4.6856  -3.8733  -3.8612
    -1.4175   0.1529   0.8548   1.0225   1.0937   1.1465   1.2510   1.3960
     1.4677   1.5371   1.5861   1.7029   1.7375   1.8864   1.9218   1.9348
     2.0002   2.0571   2.1904   2.2453   2.2969   2.3597

          k =-1.0000 0.0000 0.0000 ( 59292 PWs)   bands (ev):

   -68.6867 -68.6759 -40.3751 -40.2692 -40.1103 -40.0997 -40.0507 -40.0396
   -21.0744 -21.0188 -20.4787 -20.4589 -19.4396 -19.4090 -19.4086 -19.4046
   -19.0126 -18.9697 -18.3715 -18.3280 -18.2928 -18.2804 -17.7994 -17.7825
   -12.1100 -12.0747 -12.0450 -12.0322 -11.8852 -11.8693 -11.3509 -11.3089
   -10.2494 -10.2350 -10.1340 -10.1326 -10.1243 -10.1213  -8.6051  -8.5778
    -8.5569  -8.5274  -8.5182  -8.4886  -7.8800  -7.8737  -7.8608  -7.8530
    -7.8134  -7.8129  -7.7794  -7.7454  -7.5151  -7.4657  -6.6152  -6.6029
    -6.3464  -6.3001  -6.2927  -6.2803  -6.2091  -6.1717  -5.7218  -5.6703
    -5.5667  -5.5224  -4.7920  -4.6987  -4.6638  -4.6376  -3.8811  -3.8549
    -1.4473   0.5040   0.8390   1.0287   1.0481   1.1681   1.1962   1.2587
     1.3297   1.3521   1.6163   1.6378   1.6797   1.7918   1.7992   1.8762
     2.1208   2.1596   2.1732   2.2120   2.3160   2.3349

     the Fermi energy is    -1.1539 ev

!    total energy              =   -1133.82899071 Ry

     total all-electron energy =     -6753.504694 Ry
     estimated scf accuracy    <       0.00000005 Ry
     smearing contrib. (-TS)   =      -0.00000000 Ry
     internal energy E=F+TS    =   -1133.82899071 Ry

     The total energy is F=E-TS. E is the sum of the following terms:
     one-electron contribution =   -3954.24987122 Ry
     hartree contribution      =    2005.30408315 Ry
     xc contribution           =    -186.02290302 Ry
     ewald contribution        =    1360.51703138 Ry
     DFT-D3 Dispersion         =      -0.13403478 Ry
     one-center paw contrib.   =    -359.24329622 Ry

     total magnetization       =    10.00 Bohr mag/cell
     absolute magnetization    =    10.01 Bohr mag/cell

     convergence has been achieved in  14 iterations

     Writing output data file ./mytmp/Crdimer0.14-0.4.save/
 
     init_run     :     18.85s CPU     20.09s WALL (       1 calls)
     electrons    :    530.67s CPU    575.19s WALL (       1 calls)

     Called by init_run:
     wfcinit      :     13.84s CPU     14.55s WALL (       1 calls)
     potinit      :      1.53s CPU      1.60s WALL (       1 calls)
     hinit0       :      1.52s CPU      1.59s WALL (       1 calls)

     Called by electrons:
     c_bands      :    415.75s CPU    441.08s WALL (      14 calls)
     sum_band     :     81.23s CPU     92.62s WALL (      14 calls)
     v_of_rho     :      7.64s CPU      8.36s WALL (      15 calls)
     newd         :     18.24s CPU     25.34s WALL (      15 calls)
     PAW_pot      :      7.39s CPU      7.46s WALL (      15 calls)
     mix_rho      :      0.98s CPU      1.09s WALL (      14 calls)

     Called by c_bands:
     init_us_2    :      5.04s CPU      5.09s WALL (     870 calls)
     cegterg      :    403.41s CPU    428.66s WALL (     420 calls)

     Called by *egterg:
     cdiaghg      :     24.68s CPU     38.91s WALL (    2662 calls)
     h_psi        :    245.22s CPU    255.06s WALL (    2692 calls)
     s_psi        :     27.14s CPU     27.22s WALL (    2692 calls)
     g_psi        :      0.78s CPU      0.80s WALL (    2242 calls)

     Called by h_psi:
     h_psi:calbec :     29.41s CPU     30.09s WALL (    2692 calls)
     vloc_psi     :    185.76s CPU    194.76s WALL (    2692 calls)
     add_vuspsi   :     27.67s CPU     27.81s WALL (    2692 calls)

     General routines
     calbec       :     39.20s CPU     40.07s WALL (    3112 calls)
     fft          :      9.69s CPU     14.06s WALL (     369 calls)
     ffts         :      0.11s CPU      0.12s WALL (      58 calls)
     fftw         :    190.98s CPU    199.95s WALL (  251634 calls)
     interpolate  :      0.40s CPU      0.44s WALL (      30 calls)
 
     Parallel routines
     fft_scatt_xy :     30.80s CPU     32.00s WALL (  252061 calls)
     fft_scatt_yz :     80.61s CPU     89.17s WALL (  252061 calls)
 
     PWSCF        :   9m11.55s CPU   9m59.97s WALL

 
   This run was terminated on:  14:45:22  31Mar2021            

=------------------------------------------------------------------------------=
   JOB DONE.
=------------------------------------------------------------------------------=
