
     Program PWSCF v.6.7MaX starts on 31Mar2021 at 14: 4: 5 

     This program is part of the open-source Quantum ESPRESSO suite
     for quantum simulation of materials; please cite
         "P. Giannozzi et al., J. Phys.:Condens. Matter 21 395502 (2009);
         "P. Giannozzi et al., J. Phys.:Condens. Matter 29 465901 (2017);
          URL http://www.quantum-espresso.org", 
     in publications or presentations arising from this work. More details at
     http://www.quantum-espresso.org/quote

     Parallel version (MPI), running on    48 processors

     MPI processes distributed on     1 nodes
     R & G space division:  proc/nbgrp/npool/nimage =      48
     Reading input from Crdimer0.14-0.1.scf.in

     Current dimensions of program PWSCF are:
     Max number of different atomic species (ntypx) = 10
     Max number of k-points (npk) =  40000
     Max angular momentum in pseudopotentials (lmaxx) =  3
     file N.pbe-n-kjpaw_psl.1.0.0.UPF: wavefunction(s)  2S renormalized
     file Cr.pbe-spn-kjpaw_psl.1.0.0.UPF: wavefunction(s)  3S 3P 3D renormalized
     file Cr.pbe-spn-kjpaw_psl.1.0.0.UPF: wavefunction(s)  3S 3P 3D renormalized

     --------------------------------------------
     Parameters for DFT-D3 Dispersion Correction:
     --------------------------------------------
       Reference C6 values for interpolation: 

         atom   Coordination number   C6
         B          0.000           214.36
         B          0.971           150.74
         B          1.944           106.23
         B          2.913            62.89
         B          4.586            56.06
         N          0.000            50.54
         N          0.994            44.25
         N          2.014            39.35
         N          2.990            31.16
         Cr1        0.000          1381.48
         Cr1        1.827           571.38
         Cr1       10.619           306.69
         Cr2        0.000          1381.48
         Cr2        1.827           571.38
         Cr2       10.619           306.69

       Values used:

         atom   Coordination number  R0_AB[au]  C6      C8
         B          3.337            3.039     62.89   2505.96
         B          3.335            3.039     62.89   2506.00
         B          3.356            3.039     62.88   2505.46
         B          3.336            3.039     62.89   2505.99
         B          3.354            3.039     62.88   2505.52
         B          3.336            3.039     62.89   2505.98
         N          3.134            2.478     31.22    688.70
         N          3.134            2.478     31.22    688.70
         N          3.167            2.478     31.21    688.42
         N          3.136            2.478     31.22    688.68
         N          3.138            2.478     31.22    688.66
         N          3.134            2.478     31.22    688.70
         N          3.137            2.478     31.22    688.67
         N          3.134            2.478     31.22    688.70
         N          3.137            2.478     31.22    688.67
         B          3.336            3.039     62.89   2506.00
         B          3.335            3.039     62.89   2506.00
         B          3.336            3.039     62.89   2505.98
         B          3.354            3.039     62.88   2505.52
         B          3.337            3.039     62.89   2505.96
         B          3.336            3.039     62.89   2506.00
         N          3.137            2.478     31.22    688.67
         B          3.335            3.039     62.89   2506.01
         B          3.336            3.039     62.89   2505.99
         B          3.351            3.039     62.88   2505.61
         N          3.134            2.478     31.22    688.70
         N          3.134            2.478     31.22    688.70
         N          3.136            2.478     31.22    688.68
         N          3.136            2.478     31.22    688.68
         N          3.167            2.478     31.21    688.42
         N          3.136            2.478     31.22    688.68
         B          3.351            3.039     62.88   2505.61
         Cr1        0.775            3.252   1262.91 116552.00
         Cr2        0.775            3.252   1262.91 116552.00

         Molecular C6 ( Ry / a.u.^6 ) =     77789.61


     Subspace diagonalization in iterative solution of the eigenvalue problem:
     one sub-group per band group will be used
     scalapack distributed-memory algorithm (size of sub-group:  6*  6 procs)

 
     Parallelization info
     --------------------
     sticks:   dense  smooth     PW     G-vecs:    dense   smooth      PW
     Min         235      98     26                36277     9874    1408
     Max         236      99     27                36282     9883    1425
     Sum       11311    4741   1285              1741401   474235   68095
 


     bravais-lattice index     =            4
     lattice parameter (alat)  =      18.9275  a.u.
     unit-cell volume          =   10553.3021 (a.u.)^3
     number of atoms/cell      =           34
     number of atomic types    =            4
     number of electrons       =       156.00
     number of Kohn-Sham states=           94
     kinetic-energy cutoff     =      48.0000  Ry
     charge density cutoff     =     457.0000  Ry
     scf convergence threshold =      1.0E-07
     mixing beta               =       0.5000
     number of iterations used =            8  plain     mixing
     Exchange-correlation= SLA  PW   PBX  PBC
                           (   1   4   3   4   0   0   0)

     celldm(1)=  18.927497  celldm(2)=   0.000000  celldm(3)=   1.797125
     celldm(4)=   0.000000  celldm(5)=   0.000000  celldm(6)=   0.000000

     crystal axes: (cart. coord. in units of alat)
               a(1) = (   1.000000   0.000000   0.000000 )  
               a(2) = (  -0.500000   0.866025   0.000000 )  
               a(3) = (   0.000000   0.000000   1.797125 )  

     reciprocal axes: (cart. coord. in units 2 pi/alat)
               b(1) = (  1.000000  0.577350  0.000000 )  
               b(2) = (  0.000000  1.154701  0.000000 )  
               b(3) = (  0.000000  0.000000  0.556444 )  


     PseudoPot. # 1 for B  read from file:
     /home/sf05/q-e-qe-6.7MaX-Release/pseudo/B.pbe-n-kjpaw_psl.1.0.0.UPF
     MD5 check sum: d9c678ba5d3b2fd7b74e61139c9288d8
     Pseudo is Projector augmented-wave + core cor, Zval =  3.0
     Generated using "atomic" code by A. Dal Corso  v.5.1.2
     Shape of augmentation charge: PSQ
     Using radial grid of 1059 points,  4 beta functions with: 
                l(1) =   0
                l(2) =   0
                l(3) =   1
                l(4) =   1
     Q(r) pseudized with 0 coefficients 


     PseudoPot. # 2 for N  read from file:
     /home/sf05/q-e-qe-6.7MaX-Release/pseudo/N.pbe-n-kjpaw_psl.1.0.0.UPF
     MD5 check sum: e0e4e94a9c4025c5b51bd7d8793849bd
     Pseudo is Projector augmented-wave + core cor, Zval =  5.0
     Generated using "atomic" code by A. Dal Corso  v.5.1.2
     Shape of augmentation charge: PSQ
     Using radial grid of 1085 points,  4 beta functions with: 
                l(1) =   0
                l(2) =   0
                l(3) =   1
                l(4) =   1
     Q(r) pseudized with 0 coefficients 


     PseudoPot. # 3 for Cr read from file:
     /home/sf05/q-e-qe-6.7MaX-Release/pseudo/Cr.pbe-spn-kjpaw_psl.1.0.0.UPF
     MD5 check sum: 198f1a2427a48552563eee314eba32ba
     Pseudo is Projector augmented-wave + core cor, Zval = 14.0
     Generated using &quot;atomic&quot; code by A. Dal Corso  v.6.3
     Shape of augmentation charge: PSQ
     Using radial grid of 1183 points,  6 beta functions with: 
                l(1) =   0
                l(2) =   0
                l(3) =   1
                l(4) =   1
                l(5) =   2
                l(6) =   2
     Q(r) pseudized with 0 coefficients 


     PseudoPot. # 4 for Cr read from file:
     /home/sf05/q-e-qe-6.7MaX-Release/pseudo/Cr.pbe-spn-kjpaw_psl.1.0.0.UPF
     MD5 check sum: 198f1a2427a48552563eee314eba32ba
     Pseudo is Projector augmented-wave + core cor, Zval = 14.0
     Generated using &quot;atomic&quot; code by A. Dal Corso  v.6.3
     Shape of augmentation charge: PSQ
     Using radial grid of 1183 points,  6 beta functions with: 
                l(1) =   0
                l(2) =   0
                l(3) =   1
                l(4) =   1
                l(5) =   2
                l(6) =   2
     Q(r) pseudized with 0 coefficients 


     atomic species   valence    mass     pseudopotential
        B              3.00    10.81100     B ( 1.00)
        N              5.00    14.00674     N ( 1.00)
        Cr1           14.00    51.99610     Cr( 1.00)
        Cr2           14.00    51.99610     Cr( 1.00)

     Starting magnetic structure 
     atomic species   magnetization
        B            0.000
        N            0.000
        Cr1          1.000
        Cr2          1.000

     No symmetry found



   Cartesian axes

     site n.     atom                  positions (alat units)
         1           B   tau(   1) = (  -0.1250000   0.2165064   0.8985623  )
         2           B   tau(   2) = (   0.3750000   0.6495191   0.8985623  )
         3           B   tau(   3) = (   0.2500000   0.0000000   0.8985623  )
         4           B   tau(   4) = (   0.7500000   0.0000000   0.8985623  )
         5           B   tau(   5) = (   0.1250000   0.2165064   0.8985623  )
         6           B   tau(   6) = (  -0.3750000   0.6495191   0.8985623  )
         7           N   tau(   7) = (   0.7500005   0.2886748   0.8985623  )
         8           N   tau(   8) = (   0.3750005   0.5051812   0.8985623  )
         9           N   tau(   9) = (   0.3750005   0.0721685   0.8985623  )
        10           N   tau(  10) = (   0.6250005   0.0721685   0.8985623  )
        11           N   tau(  11) = (   0.2500005   0.2886748   0.8985623  )
        12           N   tau(  12) = (   0.6250005   0.5051812   0.8985623  )
        13           N   tau(  13) = (   0.0000005   0.2886748   0.8985623  )
        14           N   tau(  14) = (   0.2500005   0.7216875   0.8985623  )
        15           N   tau(  15) = (  -0.2499995   0.7216875   0.8985623  )
        16           B   tau(  16) = (   0.0000000   0.4330127   0.8985623  )
        17           B   tau(  17) = (   0.1250000   0.6495191   0.8985623  )
        18           B   tau(  18) = (  -0.1250000   0.6495191   0.8985623  )
        19           B   tau(  19) = (   0.3750000   0.2165064   0.8985623  )
        20           B   tau(  20) = (   0.6250000   0.2165064   0.8985623  )
        21           B   tau(  21) = (   0.5000000   0.4330127   0.8985623  )
        22           N   tau(  22) = (   0.5000005   0.2886748   0.8985623  )
        23           B   tau(  23) = (  -0.2500000   0.4330127   0.8985623  )
        24           B   tau(  24) = (   0.2500000   0.4330127   0.8985623  )
        25           B   tau(  25) = (   0.5000000   0.0000000   0.8985623  )
        26           N   tau(  26) = (  -0.1249995   0.5051812   0.8985623  )
        27           N   tau(  27) = (   0.1250005   0.5051812   0.8985623  )
        28           N   tau(  28) = (   0.0000005   0.7216875   0.8985623  )
        29           N   tau(  29) = (   0.5000005   0.7216875   0.8985623  )
        30           N   tau(  30) = (   0.1250005   0.0721685   0.8985623  )
        31           N   tau(  31) = (   0.8750005   0.0721685   0.8985623  )
        32           B   tau(  32) = (   0.0000000   0.0000000   0.8985623  )
        33           Cr1 tau(  33) = (   0.3900000   0.0866025   1.2040735  )
        34           Cr2 tau(  34) = (   0.1100000   0.0866025   1.2040735  )

     number of k points=    15  Gaussian smearing, width (Ry)=  0.0000
                       cart. coord. in units 2pi/alat
        k(    1) = (   0.1666667   0.2886751   0.0000000), wk =   0.0740741
        k(    2) = (   0.1666667  -0.4811252   0.0000000), wk =   0.0740741
        k(    3) = (   0.1666667  -0.0962250   0.0000000), wk =   0.0740741
        k(    4) = (  -0.5000000  -0.8660254   0.0000000), wk =   0.0370370
        k(    5) = (  -0.1666667   0.2886751   0.0000000), wk =   0.0740741
        k(    6) = (   0.3333333   0.0000000   0.0000000), wk =   0.0740741
        k(    7) = (  -0.1666667  -0.4811252   0.0000000), wk =   0.0740741
        k(    8) = (   0.5000000  -0.0962250   0.0000000), wk =   0.0740741
        k(    9) = (  -0.3333333  -0.3849002   0.0000000), wk =   0.0740741
        k(   10) = (   0.5000000   0.0962250   0.0000000), wk =   0.0740741
        k(   11) = (  -0.3333333   0.3849002   0.0000000), wk =   0.0740741
        k(   12) = (  -0.1666667  -0.0962250   0.0000000), wk =   0.0740741
        k(   13) = (  -0.0000000  -0.1924501   0.0000000), wk =   0.0740741
        k(   14) = (   0.5000000  -0.8660254   0.0000000), wk =   0.0370370
        k(   15) = (  -1.0000000   0.0000000   0.0000000), wk =   0.0370370

     Dense  grid:  1741401 G-vectors     FFT dimensions: ( 135, 135, 240)

     Smooth grid:   474235 G-vectors     FFT dimensions: (  90,  90, 160)

     Estimated max dynamical RAM per process >     218.62 MB

     Estimated total dynamical RAM >      10.25 GB
     Generating pointlists ...
     new r_m :   0.0595 (alat units)  1.1269 (a.u.) for type    1
     new r_m :   0.0595 (alat units)  1.1269 (a.u.) for type    2
     new r_m :   0.1155 (alat units)  2.1861 (a.u.) for type    3
     new r_m :   0.1155 (alat units)  2.1861 (a.u.) for type    4

     Initial potential from superposition of free atoms

     starting charge  155.99382, renormalised to  156.00000

     negative rho (up, down):  6.704E-03 4.655E-04
     Starting wfcs are  148 randomized atomic wfcs
     Checking if some PAW data can be deallocated... 

     total cpu time spent up to now is       20.7 secs

     Self-consistent Calculation

     iteration #  1     ecut=    48.00 Ry     beta= 0.50
     Davidson diagonalization with overlap
     ethr =  1.00E-02,  avg # of iterations =  2.8

     negative rho (up, down):  4.890E-03 2.901E-03

     total cpu time spent up to now is       64.3 secs

     total energy              =   -1130.73729866 Ry
     estimated scf accuracy    <      11.35434116 Ry

     total magnetization       =    12.00 Bohr mag/cell
     absolute magnetization    =    12.16 Bohr mag/cell

     iteration #  2     ecut=    48.00 Ry     beta= 0.50
     Davidson diagonalization with overlap
     ethr =  7.28E-03,  avg # of iterations =  2.7

     negative rho (up, down):  1.093E-02 1.028E-02

     total cpu time spent up to now is      105.1 secs

     total energy              =   -1132.46906051 Ry
     estimated scf accuracy    <       4.86199436 Ry

     total magnetization       =     9.04 Bohr mag/cell
     absolute magnetization    =     9.52 Bohr mag/cell

     iteration #  3     ecut=    48.00 Ry     beta= 0.50
     Davidson diagonalization with overlap
     ethr =  3.12E-03,  avg # of iterations =  7.4

     negative rho (up, down):  7.341E-03 7.407E-03

     total cpu time spent up to now is      150.6 secs

     total energy              =   -1133.49535820 Ry
     estimated scf accuracy    <       1.41781994 Ry

     total magnetization       =    10.00 Bohr mag/cell
     absolute magnetization    =    10.20 Bohr mag/cell

     iteration #  4     ecut=    48.00 Ry     beta= 0.50
     Davidson diagonalization with overlap
     ethr =  9.09E-04,  avg # of iterations =  5.5

     negative rho (up, down):  6.363E-03 5.659E-03

     total cpu time spent up to now is      188.9 secs

     total energy              =   -1133.80501165 Ry
     estimated scf accuracy    <       0.26425088 Ry

     total magnetization       =    10.00 Bohr mag/cell
     absolute magnetization    =    10.07 Bohr mag/cell

     iteration #  5     ecut=    48.00 Ry     beta= 0.50
     Davidson diagonalization with overlap
     ethr =  1.69E-04,  avg # of iterations = 10.3

     negative rho (up, down):  4.014E-03 3.961E-03

     total cpu time spent up to now is      233.8 secs

     total energy              =   -1133.78184986 Ry
     estimated scf accuracy    <       0.28938835 Ry

     total magnetization       =    10.00 Bohr mag/cell
     absolute magnetization    =    10.02 Bohr mag/cell

     iteration #  6     ecut=    48.00 Ry     beta= 0.50
     Davidson diagonalization with overlap
     ethr =  1.69E-04,  avg # of iterations =  5.8

     negative rho (up, down):  3.530E-03 3.946E-03

     total cpu time spent up to now is      273.9 secs

     total energy              =   -1133.81472796 Ry
     estimated scf accuracy    <       0.09993135 Ry

     total magnetization       =    10.00 Bohr mag/cell
     absolute magnetization    =    10.02 Bohr mag/cell

     iteration #  7     ecut=    48.00 Ry     beta= 0.50
     Davidson diagonalization with overlap
     ethr =  6.41E-05,  avg # of iterations =  5.7

     negative rho (up, down):  3.261E-03 3.776E-03

     total cpu time spent up to now is      313.7 secs

     total energy              =   -1133.82566068 Ry
     estimated scf accuracy    <       0.01866191 Ry

     total magnetization       =    10.00 Bohr mag/cell
     absolute magnetization    =    10.03 Bohr mag/cell

     iteration #  8     ecut=    48.00 Ry     beta= 0.50
     Davidson diagonalization with overlap
     ethr =  1.20E-05,  avg # of iterations =  5.7

     negative rho (up, down):  3.144E-03 3.772E-03

     total cpu time spent up to now is      351.1 secs

     total energy              =   -1133.82754850 Ry
     estimated scf accuracy    <       0.00112138 Ry

     total magnetization       =    10.00 Bohr mag/cell
     absolute magnetization    =    10.02 Bohr mag/cell

     iteration #  9     ecut=    48.00 Ry     beta= 0.50
     Davidson diagonalization with overlap
     c_bands:  2 eigenvalues not converged
     c_bands:  2 eigenvalues not converged
     c_bands:  1 eigenvalues not converged
     ethr =  7.19E-07,  avg # of iterations = 10.1

     negative rho (up, down):  3.119E-03 3.788E-03

     total cpu time spent up to now is      402.2 secs

     total energy              =   -1133.82784053 Ry
     estimated scf accuracy    <       0.00019130 Ry

     total magnetization       =    10.00 Bohr mag/cell
     absolute magnetization    =    10.01 Bohr mag/cell

     iteration # 10     ecut=    48.00 Ry     beta= 0.50
     Davidson diagonalization with overlap
     ethr =  1.23E-07,  avg # of iterations =  3.0

     negative rho (up, down):  3.109E-03 3.791E-03

     total cpu time spent up to now is      438.7 secs

     total energy              =   -1133.82788373 Ry
     estimated scf accuracy    <       0.00007033 Ry

     total magnetization       =    10.00 Bohr mag/cell
     absolute magnetization    =    10.01 Bohr mag/cell

     iteration # 11     ecut=    48.00 Ry     beta= 0.50
     Davidson diagonalization with overlap
     ethr =  4.51E-08,  avg # of iterations =  2.9

     negative rho (up, down):  3.105E-03 3.799E-03

     total cpu time spent up to now is      473.1 secs

     total energy              =   -1133.82790051 Ry
     estimated scf accuracy    <       0.00001094 Ry

     total magnetization       =    10.00 Bohr mag/cell
     absolute magnetization    =    10.01 Bohr mag/cell

     iteration # 12     ecut=    48.00 Ry     beta= 0.50
     Davidson diagonalization with overlap
     ethr =  7.01E-09,  avg # of iterations =  4.9

     negative rho (up, down):  3.101E-03 3.801E-03

     total cpu time spent up to now is      511.4 secs

     total energy              =   -1133.82790543 Ry
     estimated scf accuracy    <       0.00000140 Ry

     total magnetization       =    10.00 Bohr mag/cell
     absolute magnetization    =    10.01 Bohr mag/cell

     iteration # 13     ecut=    48.00 Ry     beta= 0.50
     Davidson diagonalization with overlap
     ethr =  8.99E-10,  avg # of iterations =  3.8

     negative rho (up, down):  3.100E-03 3.803E-03

     total cpu time spent up to now is      548.2 secs

     total energy              =   -1133.82790646 Ry
     estimated scf accuracy    <       0.00000037 Ry

     total magnetization       =    10.00 Bohr mag/cell
     absolute magnetization    =    10.01 Bohr mag/cell

     iteration # 14     ecut=    48.00 Ry     beta= 0.50
     Davidson diagonalization with overlap
     ethr =  2.36E-10,  avg # of iterations =  4.0

     negative rho (up, down):  3.099E-03 3.804E-03
 
     Magnetic moment per site:
     atom:    1    charge:    0.8807    magn:    0.0001    constr:    0.0000
     atom:    2    charge:    0.8804    magn:    0.0001    constr:    0.0000
     atom:    3    charge:    0.8792    magn:    0.0007    constr:    0.0000
     atom:    4    charge:    0.8807    magn:    0.0002    constr:    0.0000
     atom:    5    charge:    0.8801    magn:    0.0004    constr:    0.0000
     atom:    6    charge:    0.8801    magn:    0.0002    constr:    0.0000
     atom:    7    charge:    2.8611    magn:    0.0001    constr:    0.0000
     atom:    8    charge:    2.8609    magn:    0.0003    constr:    0.0000
     atom:    9    charge:    2.8611    magn:    0.0075    constr:    0.0000
     atom:   10    charge:    2.8609    magn:    0.0014    constr:    0.0000
     atom:   11    charge:    2.8605    magn:    0.0032    constr:    0.0000
     atom:   12    charge:    2.8609    magn:    0.0001    constr:    0.0000
     atom:   13    charge:    2.8598    magn:    0.0022    constr:    0.0000
     atom:   14    charge:    2.8599    magn:    0.0004    constr:    0.0000
     atom:   15    charge:    2.8596    magn:    0.0019    constr:    0.0000
     atom:   16    charge:    0.8800    magn:    0.0002    constr:    0.0000
     atom:   17    charge:    0.8801    magn:    0.0001    constr:    0.0000
     atom:   18    charge:    0.8798    magn:    0.0002    constr:    0.0000
     atom:   19    charge:    0.8795    magn:    0.0004    constr:    0.0000
     atom:   20    charge:    0.8801    magn:    0.0001    constr:    0.0000
     atom:   21    charge:    0.8797    magn:    0.0002    constr:    0.0000
     atom:   22    charge:    2.8611    magn:    0.0022    constr:    0.0000
     atom:   23    charge:    0.8799    magn:    0.0001    constr:    0.0000
     atom:   24    charge:    0.8797    magn:    0.0002    constr:    0.0000
     atom:   25    charge:    0.8804    magn:    0.0002    constr:    0.0000
     atom:   26    charge:    2.8598    magn:    0.0001    constr:    0.0000
     atom:   27    charge:    2.8598    magn:    0.0003    constr:    0.0000
     atom:   28    charge:    2.8596    magn:    0.0018    constr:    0.0000
     atom:   29    charge:    2.8594    magn:    0.0018    constr:    0.0000
     atom:   30    charge:    2.8598    magn:    0.0075    constr:    0.0000
     atom:   31    charge:    2.8596    magn:    0.0014    constr:    0.0000
     atom:   32    charge:    0.8807    magn:    0.0002    constr:    0.0000
     atom:   33    charge:   12.4868    magn:    4.2129    constr:    0.0000
     atom:   34    charge:   12.4867    magn:    4.2129    constr:    0.0000

     total cpu time spent up to now is      584.8 secs

     End of self-consistent calculation

 ------ SPIN UP ------------


          k = 0.1667 0.2887 0.0000 ( 59267 PWs)   bands (ev):

   -72.8837 -72.8743 -44.4395 -44.3494 -44.2915 -44.2826 -44.2503 -44.2413
   -21.2534 -20.6670 -20.6618 -20.1093 -20.1043 -19.5925 -19.5898 -19.1056
   -18.7057 -18.6972 -18.4615 -18.4585 -18.2015 -18.0909 -18.0828 -17.8555
   -12.4903 -12.2108 -12.2089 -11.8261 -11.8236 -11.6644 -11.1977 -11.1949
   -10.3976 -10.3739 -10.1233 -10.1206  -9.5952  -9.5939  -8.8438  -8.8317
    -8.8298  -8.7714  -8.7682  -8.6021  -8.2028  -8.0629  -8.0179  -7.8356
    -7.8330  -7.4449  -7.4426  -7.2874  -7.2673  -7.2140  -7.2125  -6.9645
    -6.9629  -6.5758  -6.5402  -6.1600  -6.1587  -5.8784  -5.4244  -5.3113
    -5.2766  -5.2061  -4.9169  -4.9082  -4.5147  -4.3621  -4.3427  -3.9855
    -2.9100  -2.0658  -2.0510  -1.8519  -1.6587  -1.5682  -1.4877  -1.4759
    -1.3631  -1.3437  -1.2717  -0.7171   0.6343   0.8414   1.0897   1.1960
     1.2803   1.4584   1.5181   1.5754   1.6204   1.7881

          k = 0.1667-0.4811 0.0000 ( 59291 PWs)   bands (ev):

   -72.8837 -72.8743 -44.4395 -44.3493 -44.2915 -44.2826 -44.2503 -44.2413
   -21.1237 -20.9171 -20.7293 -20.1674 -19.8106 -19.4722 -19.3235 -19.1811
   -19.0200 -18.7841 -18.6512 -18.5483 -18.1571 -18.0925 -17.9281 -17.7299
   -12.3547 -12.1196 -12.0501 -11.9114 -11.6860 -11.6646 -11.5581 -10.9476
   -10.8965 -10.6298 -10.5280  -9.8666  -9.6991  -9.3418  -9.1169  -8.6773
    -8.6292  -8.5593  -8.3943  -8.3719  -8.1673  -8.1291  -8.0689  -8.0558
    -7.6958  -7.6292  -7.5004  -7.4795  -7.3638  -7.1763  -7.0735  -6.8679
    -6.6282  -6.3945  -6.1867  -6.1639  -5.9784  -5.9351  -5.7897  -5.7506
    -5.4570  -5.4016  -5.2236  -5.0441  -4.4550  -4.3485  -4.0952  -3.7739
    -2.9073  -2.0664  -2.0505  -1.8485  -1.6572  -1.5679  -1.4900  -1.4776
    -1.3631  -1.3437  -1.2722  -0.7204   0.5534   0.8487   1.0746   1.1335
     1.2085   1.2639   1.3991   1.8362   1.9252   2.1067

          k = 0.1667-0.0962 0.0000 ( 59226 PWs)   bands (ev):

   -72.8837 -72.8743 -44.4395 -44.3494 -44.2915 -44.2826 -44.2503 -44.2413
   -21.3197 -20.5430 -20.3545 -20.3411 -19.9989 -19.9835 -19.8109 -18.7408
   -18.7249 -18.3828 -18.3754 -18.3596 -18.2721 -18.2699 -18.0848 -18.0742
   -12.5117 -12.5099 -12.4137 -11.5892 -11.5800 -11.4301 -11.4285 -10.9327
   -10.9285  -9.9368  -9.9305  -9.6818  -9.3812  -9.3781  -9.2363  -9.2329
    -9.0481  -9.0459  -8.9312  -8.3309  -8.3259  -7.9080  -7.9055  -7.8902
    -7.8509  -7.7762  -7.6196  -7.5826  -7.1491  -7.0921  -6.9656  -6.8951
    -6.8900  -6.8552  -6.5388  -6.5325  -6.2634  -5.3695  -5.3161  -5.1492
    -5.0713  -4.8237  -4.8070  -4.7521  -4.6190  -4.6107  -4.3607  -4.3320
    -2.9128  -2.0654  -2.0515  -1.8552  -1.6612  -1.5684  -1.4857  -1.4743
    -1.3630  -1.3437  -1.2713  -0.7135   0.7243   0.8147   1.0485   1.2076
     1.2897   1.3424   1.5722   1.5862   1.7230   1.9148

          k =-0.5000-0.8660 0.0000 ( 59292 PWs)   bands (ev):

   -72.8837 -72.8743 -44.4395 -44.3494 -44.2915 -44.2826 -44.2503 -44.2413
   -21.0566 -21.0528 -20.4791 -20.4660 -19.4364 -19.4307 -19.4158 -19.4130
   -18.9983 -18.9948 -18.3289 -18.3253 -18.3234 -18.3226 -17.8027 -17.7909
   -12.0742 -12.0714 -12.0696 -12.0690 -11.8866 -11.8762 -11.3351 -11.3327
   -10.2436 -10.2351 -10.1419 -10.1403 -10.1322 -10.1313  -8.6013  -8.5555
    -8.5513  -8.5507  -8.5495  -8.5457  -7.8726  -7.8715  -7.8628  -7.8618
    -7.8308  -7.8232  -7.7932  -7.7537  -7.4944  -7.4935  -6.6206  -6.6110
    -6.3753  -6.3473  -6.3029  -6.2957  -6.1953  -6.1934  -5.7208  -5.6996
    -5.5505  -5.5489  -4.7357  -4.7315  -4.7013  -4.6925  -3.9002  -3.8669
    -2.8958  -2.0650  -2.0478  -1.8494  -1.6586  -1.5674  -1.4883  -1.4799
    -1.3664  -1.3506  -1.2772  -0.8413   0.7162   1.0182   1.1090   1.2012
     1.3275   1.5479   1.5821   1.6220   1.7327   1.7551

          k =-0.1667 0.2887 0.0000 ( 59267 PWs)   bands (ev):

   -72.8837 -72.8743 -44.4395 -44.3494 -44.2915 -44.2826 -44.2503 -44.2413
   -21.2534 -20.6670 -20.6618 -20.1093 -20.1043 -19.5925 -19.5898 -19.1056
   -18.7057 -18.6972 -18.4615 -18.4585 -18.2015 -18.0909 -18.0828 -17.8555
   -12.4903 -12.2109 -12.2089 -11.8261 -11.8236 -11.6644 -11.1976 -11.1949
   -10.3976 -10.3738 -10.1233 -10.1206  -9.5952  -9.5939  -8.8438  -8.8316
    -8.8298  -8.7714  -8.7683  -8.6020  -8.2028  -8.0629  -8.0179  -7.8356
    -7.8329  -7.4450  -7.4426  -7.2874  -7.2674  -7.2140  -7.2125  -6.9646
    -6.9629  -6.5758  -6.5402  -6.1600  -6.1586  -5.8784  -5.4245  -5.3113
    -5.2766  -5.2060  -4.9169  -4.9082  -4.5147  -4.3621  -4.3427  -3.9855
    -2.9100  -2.0658  -2.0510  -1.8519  -1.6587  -1.5682  -1.4877  -1.4759
    -1.3631  -1.3437  -1.2717  -0.7171   0.6343   0.8414   1.0897   1.1960
     1.2802   1.4584   1.5181   1.5753   1.6204   1.7881

          k = 0.3333 0.0000 0.0000 ( 59267 PWs)   bands (ev):

   -72.8837 -72.8743 -44.4395 -44.3494 -44.2915 -44.2826 -44.2503 -44.2414
   -21.2528 -20.6956 -20.6331 -20.1186 -20.0926 -19.6235 -19.5615 -19.1086
   -18.7233 -18.6725 -18.4743 -18.4477 -18.1964 -18.1180 -18.0645 -17.8543
   -12.4890 -12.2192 -12.2011 -11.8372 -11.8157 -11.6619 -11.2175 -11.1752
   -10.3973 -10.3727 -10.1386 -10.1063  -9.6018  -9.5854  -8.8445  -8.8374
    -8.8196  -8.7976  -8.7442  -8.6035  -8.2053  -8.1134  -7.9668  -7.8360
    -7.8299  -7.4512  -7.4355  -7.3082  -7.2396  -7.2251  -7.2010  -6.9756
    -6.9538  -6.6309  -6.4945  -6.1632  -6.1544  -5.8870  -5.4242  -5.3254
    -5.2467  -5.2065  -4.9441  -4.8838  -4.5063  -4.3993  -4.3214  -3.9831
    -2.9024  -2.0650  -2.0485  -1.8526  -1.6608  -1.5678  -1.4864  -1.4773
    -1.3653  -1.3484  -1.2749  -0.8012   0.7381   1.0200   1.1334   1.2339
     1.2985   1.4560   1.5244   1.5669   1.5733   1.8362

          k =-0.1667-0.4811 0.0000 ( 59291 PWs)   bands (ev):

   -72.8837 -72.8743 -44.4395 -44.3493 -44.2915 -44.2826 -44.2503 -44.2413
   -21.1237 -20.9171 -20.7293 -20.1674 -19.8106 -19.4722 -19.3235 -19.1811
   -19.0200 -18.7841 -18.6512 -18.5483 -18.1571 -18.0925 -17.9281 -17.7299
   -12.3547 -12.1196 -12.0501 -11.9114 -11.6860 -11.6646 -11.5581 -10.9476
   -10.8965 -10.6298 -10.5280  -9.8666  -9.6991  -9.3419  -9.1169  -8.6773
    -8.6292  -8.5593  -8.3943  -8.3719  -8.1673  -8.1291  -8.0690  -8.0558
    -7.6958  -7.6293  -7.5003  -7.4795  -7.3638  -7.1763  -7.0735  -6.8679
    -6.6282  -6.3945  -6.1867  -6.1639  -5.9784  -5.9351  -5.7897  -5.7506
    -5.4570  -5.4016  -5.2236  -5.0441  -4.4550  -4.3485  -4.0952  -3.7739
    -2.9073  -2.0664  -2.0505  -1.8485  -1.6572  -1.5679  -1.4900  -1.4776
    -1.3631  -1.3437  -1.2722  -0.7204   0.5534   0.8487   1.0746   1.1335
     1.2084   1.2638   1.3991   1.8361   1.9253   2.1068

          k = 0.5000-0.0962 0.0000 ( 59291 PWs)   bands (ev):

   -72.8837 -72.8743 -44.4395 -44.3494 -44.2915 -44.2826 -44.2503 -44.2414
   -21.1201 -20.9269 -20.7231 -20.1652 -19.8100 -19.4758 -19.3303 -19.1745
   -19.0219 -18.7865 -18.6364 -18.5559 -18.1428 -18.1131 -17.9244 -17.7293
   -12.3524 -12.1206 -12.0478 -11.9170 -11.7005 -11.6475 -11.5606 -10.9483
   -10.8935 -10.6274 -10.5313  -9.8638  -9.6996  -9.3429  -9.1161  -8.6651
    -8.6302  -8.5569  -8.4074  -8.3991  -8.1649  -8.1074  -8.0847  -8.0415
    -7.6904  -7.6299  -7.4993  -7.4810  -7.3567  -7.1783  -7.0744  -6.8651
    -6.6288  -6.4090  -6.2028  -6.1629  -5.9607  -5.9342  -5.7888  -5.7553
    -5.4586  -5.4061  -5.1907  -5.0606  -4.4309  -4.3831  -4.0900  -3.7724
    -2.8958  -2.0651  -2.0478  -1.8494  -1.6592  -1.5674  -1.4884  -1.4799
    -1.3664  -1.3506  -1.2772  -0.8411   0.6995   1.0158   1.1287   1.1960
     1.2579   1.2926   1.5316   1.7549   1.8526   1.9320

          k =-0.3333-0.3849 0.0000 ( 59291 PWs)   bands (ev):

   -72.8837 -72.8743 -44.4395 -44.3494 -44.2915 -44.2826 -44.2503 -44.2414
   -21.1214 -20.9235 -20.7255 -20.1647 -19.8132 -19.4727 -19.3235 -19.1797
   -19.0256 -18.7836 -18.6382 -18.5554 -18.1460 -18.1089 -17.9246 -17.7296
   -12.3539 -12.1172 -12.0510 -11.9148 -11.6877 -11.6623 -11.5596 -10.9481
   -10.8933 -10.6267 -10.5320  -9.8645  -9.6998  -9.3424  -9.1176  -8.6693
    -8.6282  -8.5589  -8.3967  -8.3935  -8.1667  -8.1158  -8.0687  -8.0592
    -7.6907  -7.6281  -7.5074  -7.4734  -7.3545  -7.1783  -7.0753  -6.8765
    -6.6261  -6.3968  -6.1845  -6.1659  -5.9771  -5.9328  -5.7891  -5.7653
    -5.4583  -5.3984  -5.1922  -5.0621  -4.4342  -4.3785  -4.0897  -3.7730
    -2.8997  -2.0655  -2.0490  -1.8491  -1.6581  -1.5676  -1.4890  -1.4791
    -1.3653  -1.3483  -1.2754  -0.8043   0.6527   0.9770   1.0905   1.1786
     1.2172   1.3517   1.4238   1.8223   1.8904   1.9230

          k = 0.5000 0.0962 0.0000 ( 59291 PWs)   bands (ev):

   -72.8837 -72.8743 -44.4395 -44.3494 -44.2915 -44.2826 -44.2503 -44.2414
   -21.1201 -20.9269 -20.7231 -20.1652 -19.8100 -19.4758 -19.3303 -19.1745
   -19.0219 -18.7865 -18.6364 -18.5559 -18.1428 -18.1131 -17.9243 -17.7293
   -12.3524 -12.1206 -12.0478 -11.9171 -11.7005 -11.6474 -11.5606 -10.9483
   -10.8935 -10.6274 -10.5314  -9.8638  -9.6997  -9.3429  -9.1161  -8.6651
    -8.6302  -8.5569  -8.4074  -8.3991  -8.1649  -8.1074  -8.0847  -8.0415
    -7.6904  -7.6299  -7.4993  -7.4811  -7.3567  -7.1783  -7.0744  -6.8651
    -6.6287  -6.4090  -6.2028  -6.1628  -5.9607  -5.9342  -5.7889  -5.7553
    -5.4587  -5.4061  -5.1907  -5.0605  -4.4309  -4.3831  -4.0900  -3.7724
    -2.8958  -2.0651  -2.0478  -1.8494  -1.6592  -1.5674  -1.4884  -1.4799
    -1.3664  -1.3506  -1.2772  -0.8411   0.6995   1.0158   1.1287   1.1960
     1.2579   1.2926   1.5315   1.7549   1.8526   1.9319

          k =-0.3333 0.3849 0.0000 ( 59291 PWs)   bands (ev):

   -72.8837 -72.8743 -44.4395 -44.3494 -44.2915 -44.2826 -44.2503 -44.2414
   -21.1214 -20.9235 -20.7255 -20.1647 -19.8132 -19.4727 -19.3235 -19.1797
   -19.0256 -18.7836 -18.6382 -18.5554 -18.1460 -18.1089 -17.9246 -17.7296
   -12.3539 -12.1172 -12.0511 -11.9148 -11.6877 -11.6624 -11.5596 -10.9482
   -10.8933 -10.6267 -10.5320  -9.8645  -9.6997  -9.3424  -9.1176  -8.6693
    -8.6282  -8.5589  -8.3968  -8.3935  -8.1667  -8.1159  -8.0686  -8.0592
    -7.6906  -7.6281  -7.5074  -7.4734  -7.3546  -7.1783  -7.0754  -6.8765
    -6.6261  -6.3968  -6.1845  -6.1659  -5.9771  -5.9329  -5.7891  -5.7653
    -5.4582  -5.3983  -5.1922  -5.0621  -4.4343  -4.3785  -4.0896  -3.7730
    -2.8997  -2.0655  -2.0490  -1.8491  -1.6581  -1.5676  -1.4890  -1.4791
    -1.3653  -1.3483  -1.2754  -0.8043   0.6527   0.9770   1.0905   1.1786
     1.2172   1.3517   1.4238   1.8224   1.8905   1.9230

          k =-0.1667-0.0962 0.0000 ( 59226 PWs)   bands (ev):

   -72.8837 -72.8743 -44.4395 -44.3494 -44.2915 -44.2826 -44.2503 -44.2413
   -21.3197 -20.5430 -20.3545 -20.3412 -19.9989 -19.9835 -19.8109 -18.7408
   -18.7249 -18.3828 -18.3754 -18.3596 -18.2722 -18.2699 -18.0847 -18.0742
   -12.5117 -12.5099 -12.4137 -11.5891 -11.5800 -11.4301 -11.4285 -10.9327
   -10.9285  -9.9368  -9.9306  -9.6817  -9.3812  -9.3781  -9.2363  -9.2329
    -9.0481  -9.0460  -8.9312  -8.3309  -8.3259  -7.9080  -7.9054  -7.8902
    -7.8509  -7.7762  -7.6196  -7.5826  -7.1491  -7.0921  -6.9657  -6.8951
    -6.8900  -6.8552  -6.5388  -6.5325  -6.2635  -5.3695  -5.3161  -5.1491
    -5.0714  -4.8237  -4.8070  -4.7521  -4.6190  -4.6107  -4.3607  -4.3320
    -2.9128  -2.0654  -2.0515  -1.8552  -1.6612  -1.5684  -1.4857  -1.4743
    -1.3630  -1.3437  -1.2713  -0.7135   0.7243   0.8147   1.0485   1.2075
     1.2897   1.3424   1.5723   1.5862   1.7230   1.9148

          k =-0.0000-0.1925 0.0000 ( 59226 PWs)   bands (ev):

   -72.8837 -72.8743 -44.4395 -44.3493 -44.2915 -44.2826 -44.2503 -44.2413
   -21.3199 -20.5367 -20.3591 -20.3478 -19.9917 -19.9813 -19.8152 -18.7356
   -18.7251 -18.4150 -18.3681 -18.3578 -18.2595 -18.2581 -18.0873 -18.0781
   -12.5198 -12.5019 -12.4135 -11.5891 -11.5814 -11.4376 -11.4177 -10.9334
   -10.9300  -9.9344  -9.9331  -9.6816  -9.3864  -9.3714  -9.2361  -9.2353
    -9.0476  -9.0459  -8.9318  -8.3292  -8.3269  -7.9085  -7.9021  -7.8704
    -7.8506  -7.7785  -7.6382  -7.6022  -7.1170  -7.0945  -6.9639  -6.8956
    -6.8914  -6.8676  -6.5376  -6.5330  -6.2641  -5.3504  -5.3244  -5.1496
    -5.0709  -4.8803  -4.7831  -4.7587  -4.6021  -4.5875  -4.3595  -4.3446
    -2.9165  -2.0658  -2.0527  -1.8549  -1.6601  -1.5686  -1.4864  -1.4737
    -1.3619  -1.3414  -1.2699  -0.6643   0.6390   0.7587   1.0330   1.1765
     1.2471   1.4033   1.5536   1.6103   1.6855   1.9914

          k = 0.5000-0.8660 0.0000 ( 59292 PWs)   bands (ev):

   -72.8837 -72.8743 -44.4395 -44.3494 -44.2915 -44.2826 -44.2503 -44.2413
   -21.0566 -21.0529 -20.4791 -20.4660 -19.4364 -19.4307 -19.4158 -19.4130
   -18.9983 -18.9949 -18.3289 -18.3253 -18.3235 -18.3226 -17.8027 -17.7909
   -12.0742 -12.0713 -12.0696 -12.0690 -11.8866 -11.8762 -11.3350 -11.3328
   -10.2436 -10.2351 -10.1419 -10.1403 -10.1322 -10.1314  -8.6013  -8.5555
    -8.5512  -8.5508  -8.5495  -8.5456  -7.8726  -7.8714  -7.8628  -7.8618
    -7.8308  -7.8233  -7.7932  -7.7537  -7.4945  -7.4936  -6.6205  -6.6109
    -6.3753  -6.3473  -6.3029  -6.2957  -6.1953  -6.1933  -5.7208  -5.6996
    -5.5506  -5.5490  -4.7357  -4.7315  -4.7013  -4.6926  -3.9002  -3.8669
    -2.8958  -2.0650  -2.0478  -1.8494  -1.6586  -1.5674  -1.4883  -1.4799
    -1.3664  -1.3506  -1.2772  -0.8413   0.7162   1.0182   1.1090   1.2012
     1.3275   1.5478   1.5820   1.6220   1.7327   1.7551

          k =-1.0000 0.0000 0.0000 ( 59292 PWs)   bands (ev):

   -72.8837 -72.8743 -44.4395 -44.3494 -44.2915 -44.2826 -44.2503 -44.2413
   -21.0843 -21.0216 -20.4811 -20.4700 -19.4374 -19.4328 -19.4171 -19.4010
   -19.0223 -18.9721 -18.3961 -18.3166 -18.3082 -18.2808 -17.8024 -17.7935
   -12.1228 -12.0726 -12.0506 -12.0340 -11.8863 -11.8766 -11.3579 -11.3119
   -10.2492 -10.2476 -10.1365 -10.1364 -10.1289 -10.1288  -8.6435  -8.5903
    -8.5561  -8.5350  -8.5184  -8.4926  -7.8841  -7.8750  -7.8672  -7.8651
    -7.8194  -7.8172  -7.7958  -7.7682  -7.5229  -7.4678  -6.6170  -6.6112
    -6.3690  -6.3486  -6.3044  -6.2767  -6.2175  -6.1748  -5.7499  -5.6756
    -5.5752  -5.5244  -4.8494  -4.6989  -4.6782  -4.6399  -3.8923  -3.8785
    -2.9111  -2.0668  -2.0508  -1.8482  -1.6568  -1.5681  -1.4903  -1.4769
    -1.3621  -1.3416  -1.2708  -0.6720   0.5139   0.7619   1.0913   1.1064
     1.1586   1.5197   1.5787   1.6197   1.6331   1.9253

 ------ SPIN DOWN ----------


          k = 0.1667 0.2887 0.0000 ( 59267 PWs)   bands (ev):

   -68.6898 -68.6790 -40.3749 -40.2687 -40.1238 -40.1132 -40.0466 -40.0359
   -21.2496 -20.6625 -20.6589 -20.1053 -20.1007 -19.5882 -19.5866 -19.1016
   -18.7000 -18.6941 -18.4575 -18.4547 -18.1968 -18.0868 -18.0799 -17.8515
   -12.4880 -12.2084 -12.2065 -11.8239 -11.8216 -11.6623 -11.1948 -11.1928
   -10.3949 -10.3714 -10.1199 -10.1186  -9.5925  -9.5918  -8.8292  -8.8271
    -8.8236  -8.7690  -8.7660  -8.5998  -8.2005  -8.0384  -8.0088  -7.8331
    -7.8307  -7.4413  -7.4400  -7.2679  -7.2539  -7.2115  -7.2103  -6.9621
    -6.9605  -6.5542  -6.5325  -6.1572  -6.1563  -5.8621  -5.4214  -5.2851
    -5.2662  -5.2034  -4.9024  -4.8954  -4.4971  -4.3473  -4.3346  -3.9718
    -1.4549   0.3991   0.8056   0.9503   1.0985   1.1684   1.2802   1.3541
     1.3910   1.4647   1.5452   1.6168   1.6436   1.7278   1.8813   2.0278
     2.0555   2.0746   2.1439   2.1705   2.3105   2.3510

          k = 0.1667-0.4811 0.0000 ( 59291 PWs)   bands (ev):

   -68.6898 -68.6790 -40.3749 -40.2687 -40.1238 -40.1132 -40.0466 -40.0359
   -21.1196 -20.9140 -20.7255 -20.1635 -19.8069 -19.4684 -19.3197 -19.1771
   -19.0161 -18.7804 -18.6457 -18.5453 -18.1514 -18.0902 -17.9240 -17.7257
   -12.3524 -12.1172 -12.0480 -11.9093 -11.6841 -11.6621 -11.5559 -10.9450
   -10.8938 -10.6271 -10.5258  -9.8637  -9.6968  -9.3391  -9.1144  -8.6536
    -8.6267  -8.5563  -8.3921  -8.3603  -8.1649  -8.1124  -8.0665  -8.0536
    -7.6929  -7.6268  -7.4978  -7.4774  -7.3459  -7.1734  -7.0711  -6.8518
    -6.6250  -6.3793  -6.1693  -6.1613  -5.9635  -5.9321  -5.7870  -5.7356
    -5.4545  -5.3878  -5.1995  -5.0356  -4.4338  -4.3425  -4.0816  -3.7602
    -1.4458   0.3892   0.8024   0.9160   1.0236   1.1267   1.2128   1.2603
     1.3642   1.4031   1.5672   1.7308   1.7692   1.8848   1.9221   2.0639
     2.1151   2.1313   2.1659   2.2108   2.3168   2.3472

          k = 0.1667-0.0962 0.0000 ( 59226 PWs)   bands (ev):

   -68.6898 -68.6790 -40.3749 -40.2687 -40.1238 -40.1132 -40.0466 -40.0359
   -21.3159 -20.5387 -20.3507 -20.3382 -19.9940 -19.9803 -19.8077 -18.7354
   -18.7214 -18.3775 -18.3714 -18.3564 -18.2680 -18.2659 -18.0810 -18.0710
   -12.5094 -12.5076 -12.4115 -11.5866 -11.5782 -11.4277 -11.4261 -10.9301
   -10.9262  -9.9340  -9.9285  -9.6790  -9.3787  -9.3758  -9.2333  -9.2303
    -9.0456  -9.0438  -8.9124  -8.3277  -8.3231  -7.9051  -7.9031  -7.8675
    -7.8474  -7.7739  -7.6028  -7.5729  -7.1234  -7.0822  -6.9630  -6.8924
    -6.8880  -6.8452  -6.5360  -6.5303  -6.2609  -5.3428  -5.3053  -5.1463
    -5.0686  -4.8010  -4.7905  -4.7425  -4.6054  -4.5992  -4.3460  -4.3228
    -1.4638   0.4116   0.8057   0.9572   1.0540   1.1402   1.2020   1.3033
     1.5008   1.5262   1.6055   1.6650   1.7845   1.8169   1.8698   1.9350
     2.0265   2.0671   2.1218   2.1401   2.2606   2.3541

          k =-0.5000-0.8660 0.0000 ( 59292 PWs)   bands (ev):

   -68.6898 -68.6790 -40.3749 -40.2687 -40.1238 -40.1132 -40.0466 -40.0359
   -21.0517 -21.0501 -20.4751 -20.4630 -19.4309 -19.4260 -19.4129 -19.4099
   -18.9935 -18.9921 -18.3230 -18.3213 -18.3206 -18.3190 -17.7983 -17.7873
   -12.0709 -12.0686 -12.0680 -12.0672 -11.8841 -11.8747 -11.3322 -11.3308
   -10.2405 -10.2332 -10.1387 -10.1375 -10.1299 -10.1291  -8.5722  -8.5509
    -8.5492  -8.5484  -8.5472  -8.5377  -7.8694  -7.8686  -7.8608  -7.8598
    -7.8275  -7.8201  -7.7751  -7.7437  -7.4927  -7.4907  -6.6172  -6.6090
    -6.3432  -6.3263  -6.2944  -6.2873  -6.1925  -6.1906  -5.7018  -5.6914
    -5.5474  -5.5467  -4.7130  -4.7077  -4.6934  -4.6883  -3.8831  -3.8575
    -1.4229   0.1489   0.8156   0.9914   1.0553   1.1431   1.2447   1.3860
     1.5021   1.5570   1.5714   1.7095   1.7623   1.8731   1.9057   1.9386
     1.9853   2.0908   2.1744   2.1919   2.3240   2.3587

          k =-0.1667 0.2887 0.0000 ( 59267 PWs)   bands (ev):

   -68.6898 -68.6790 -40.3749 -40.2687 -40.1238 -40.1132 -40.0466 -40.0359
   -21.2496 -20.6625 -20.6589 -20.1053 -20.1007 -19.5883 -19.5866 -19.1016
   -18.7000 -18.6941 -18.4575 -18.4547 -18.1968 -18.0868 -18.0799 -17.8515
   -12.4880 -12.2084 -12.2065 -11.8239 -11.8216 -11.6623 -11.1948 -11.1928
   -10.3949 -10.3714 -10.1200 -10.1186  -9.5925  -9.5918  -8.8292  -8.8270
    -8.8236  -8.7690  -8.7660  -8.5997  -8.2006  -8.0384  -8.0089  -7.8331
    -7.8306  -7.4413  -7.4400  -7.2679  -7.2539  -7.2115  -7.2102  -6.9622
    -6.9606  -6.5542  -6.5325  -6.1573  -6.1562  -5.8620  -5.4215  -5.2851
    -5.2662  -5.2033  -4.9024  -4.8954  -4.4972  -4.3473  -4.3346  -3.9717
    -1.4549   0.3991   0.8056   0.9504   1.0985   1.1684   1.2802   1.3541
     1.3910   1.4647   1.5452   1.6168   1.6436   1.7278   1.8813   2.0278
     2.0555   2.0746   2.1439   2.1705   2.3105   2.3510

          k = 0.3333 0.0000 0.0000 ( 59267 PWs)   bands (ev):

   -68.6898 -68.6790 -40.3749 -40.2687 -40.1239 -40.1132 -40.0466 -40.0359
   -21.2491 -20.6901 -20.6312 -20.1144 -20.0895 -19.6177 -19.5595 -19.1043
   -18.7174 -18.6706 -18.4697 -18.4442 -18.1923 -18.1119 -18.0624 -17.8504
   -12.4868 -12.2164 -12.1991 -11.8347 -11.8137 -11.6601 -11.2141 -11.1736
   -10.3947 -10.3704 -10.1350 -10.1047  -9.5990  -9.5836  -8.8343  -8.8276
    -8.8148  -8.7939  -8.7431  -8.6011  -8.2027  -8.0839  -7.9629  -7.8336
    -7.8278  -7.4475  -7.4332  -7.2855  -7.2313  -7.2219  -7.1993  -6.9726
    -6.9519  -6.6028  -6.4904  -6.1604  -6.1522  -5.8683  -5.4213  -5.3023
    -5.2380  -5.2038  -4.9244  -4.8753  -4.4904  -4.3798  -4.3140  -3.9702
    -1.4402   0.2284   0.8538   0.9548   1.0972   1.1350   1.2512   1.4299
     1.4656   1.4960   1.5549   1.7028   1.7528   1.8561   1.8930   1.9224
     2.0180   2.0650   2.1476   2.2197   2.3099   2.3519

          k =-0.1667-0.4811 0.0000 ( 59291 PWs)   bands (ev):

   -68.6898 -68.6790 -40.3749 -40.2687 -40.1238 -40.1132 -40.0466 -40.0359
   -21.1196 -20.9140 -20.7255 -20.1635 -19.8069 -19.4684 -19.3197 -19.1771
   -19.0161 -18.7804 -18.6457 -18.5452 -18.1515 -18.0901 -17.9240 -17.7257
   -12.3524 -12.1172 -12.0480 -11.9093 -11.6841 -11.6621 -11.5559 -10.9450
   -10.8938 -10.6271 -10.5257  -9.8636  -9.6968  -9.3391  -9.1145  -8.6536
    -8.6266  -8.5564  -8.3921  -8.3603  -8.1649  -8.1124  -8.0666  -8.0536
    -7.6929  -7.6269  -7.4978  -7.4774  -7.3459  -7.1734  -7.0711  -6.8518
    -6.6251  -6.3793  -6.1693  -6.1613  -5.9635  -5.9320  -5.7870  -5.7356
    -5.4545  -5.3878  -5.1995  -5.0356  -4.4338  -4.3426  -4.0816  -3.7602
    -1.4458   0.3892   0.8024   0.9160   1.0236   1.1267   1.2128   1.2603
     1.3642   1.4031   1.5672   1.7308   1.7692   1.8849   1.9221   2.0639
     2.1150   2.1313   2.1659   2.2108   2.3159   2.3462

          k = 0.5000-0.0962 0.0000 ( 59291 PWs)   bands (ev):

   -68.6898 -68.6790 -40.3749 -40.2687 -40.1238 -40.1132 -40.0466 -40.0359
   -21.1163 -20.9227 -20.7200 -20.1615 -19.8063 -19.4715 -19.3257 -19.1712
   -19.0178 -18.7825 -18.6327 -18.5519 -18.1386 -18.1084 -17.9207 -17.7252
   -12.3502 -12.1182 -12.0459 -11.9145 -11.6977 -11.6461 -11.5581 -10.9457
   -10.8910 -10.6249 -10.5288  -9.8611  -9.6973  -9.3400  -9.1138  -8.6447
    -8.6274  -8.5542  -8.3978  -8.3850  -8.1627  -8.0967  -8.0812  -8.0403
    -7.6881  -7.6275  -7.4968  -7.4788  -7.3408  -7.1752  -7.0719  -6.8500
    -6.6255  -6.3883  -6.1825  -6.1605  -5.9507  -5.9313  -5.7862  -5.7388
    -5.4559  -5.3909  -5.1758  -5.0477  -4.4133  -4.3704  -4.0778  -3.7593
    -1.4230   0.1508   0.8141   0.9686   1.0407   1.1437   1.1902   1.2613
     1.3992   1.5859   1.6804   1.7787   1.8795   1.9038   1.9753   1.9933
     2.0283   2.0940   2.1984   2.2474   2.3093   2.3591

          k =-0.3333-0.3849 0.0000 ( 59291 PWs)   bands (ev):

   -68.6898 -68.6790 -40.3749 -40.2687 -40.1238 -40.1132 -40.0466 -40.0359
   -21.1175 -20.9196 -20.7221 -20.1611 -19.8091 -19.4688 -19.3197 -19.1758
   -19.0212 -18.7799 -18.6343 -18.5516 -18.1414 -18.1049 -17.9209 -17.7255
   -12.3516 -12.1150 -12.0489 -11.9124 -11.6857 -11.6601 -11.5572 -10.9456
   -10.8909 -10.6243 -10.5294  -9.8617  -9.6974  -9.3396  -9.1151  -8.6476
    -8.6257  -8.5559  -8.3940  -8.3763  -8.1644  -8.1028  -8.0662  -8.0567
    -7.6884  -7.6258  -7.5042  -7.4719  -7.3394  -7.1752  -7.0728  -6.8578
    -6.6231  -6.3807  -6.1688  -6.1627  -5.9618  -5.9300  -5.7865  -5.7466
    -5.4557  -5.3854  -5.1770  -5.0487  -4.4162  -4.3667  -4.0776  -3.7596
    -1.4308   0.2171   0.8015   0.9604   1.0308   1.1408   1.2221   1.2879
     1.3652   1.4930   1.6846   1.7559   1.8580   1.9002   1.9451   2.0287
     2.0695   2.0869   2.1362   2.2115   2.3212   2.3571

          k = 0.5000 0.0962 0.0000 ( 59291 PWs)   bands (ev):

   -68.6898 -68.6790 -40.3749 -40.2687 -40.1238 -40.1132 -40.0466 -40.0359
   -21.1163 -20.9227 -20.7200 -20.1616 -19.8063 -19.4716 -19.3257 -19.1712
   -19.0178 -18.7825 -18.6327 -18.5520 -18.1386 -18.1085 -17.9207 -17.7252
   -12.3502 -12.1182 -12.0459 -11.9145 -11.6977 -11.6461 -11.5581 -10.9457
   -10.8910 -10.6250 -10.5289  -9.8612  -9.6973  -9.3400  -9.1137  -8.6447
    -8.6274  -8.5542  -8.3978  -8.3850  -8.1627  -8.0967  -8.0811  -8.0402
    -7.6882  -7.6274  -7.4968  -7.4789  -7.3408  -7.1753  -7.0719  -6.8500
    -6.6254  -6.3883  -6.1825  -6.1604  -5.9507  -5.9312  -5.7863  -5.7388
    -5.4560  -5.3909  -5.1758  -5.0477  -4.4133  -4.3704  -4.0778  -3.7593
    -1.4230   0.1508   0.8141   0.9685   1.0407   1.1437   1.1902   1.2613
     1.3992   1.5859   1.6804   1.7787   1.8794   1.9037   1.9753   1.9933
     2.0283   2.0941   2.1984   2.2479   2.3094   2.3596

          k =-0.3333 0.3849 0.0000 ( 59291 PWs)   bands (ev):

   -68.6898 -68.6790 -40.3749 -40.2687 -40.1238 -40.1132 -40.0466 -40.0359
   -21.1175 -20.9196 -20.7221 -20.1611 -19.8091 -19.4689 -19.3197 -19.1758
   -19.0212 -18.7800 -18.6343 -18.5516 -18.1414 -18.1049 -17.9209 -17.7255
   -12.3516 -12.1150 -12.0489 -11.9124 -11.6857 -11.6601 -11.5572 -10.9456
   -10.8908 -10.6243 -10.5294  -9.8617  -9.6973  -9.3396  -9.1151  -8.6476
    -8.6258  -8.5559  -8.3940  -8.3763  -8.1644  -8.1028  -8.0662  -8.0567
    -7.6883  -7.6258  -7.5042  -7.4718  -7.3394  -7.1752  -7.0728  -6.8578
    -6.6232  -6.3807  -6.1688  -6.1627  -5.9618  -5.9301  -5.7864  -5.7467
    -5.4556  -5.3854  -5.1770  -5.0487  -4.4162  -4.3667  -4.0775  -3.7596
    -1.4308   0.2171   0.8015   0.9604   1.0307   1.1408   1.2221   1.2879
     1.3652   1.4930   1.6846   1.7559   1.8580   1.9001   1.9451   2.0286
     2.0691   2.0868   2.1359   2.2110   2.3211   2.3560

          k =-0.1667-0.0962 0.0000 ( 59226 PWs)   bands (ev):

   -68.6898 -68.6790 -40.3749 -40.2687 -40.1238 -40.1132 -40.0466 -40.0359
   -21.3159 -20.5387 -20.3507 -20.3382 -19.9940 -19.9803 -19.8077 -18.7354
   -18.7214 -18.3775 -18.3714 -18.3564 -18.2680 -18.2659 -18.0810 -18.0710
   -12.5094 -12.5076 -12.4114 -11.5866 -11.5782 -11.4277 -11.4261 -10.9301
   -10.9262  -9.9340  -9.9285  -9.6790  -9.3787  -9.3757  -9.2333  -9.2304
    -9.0456  -9.0438  -8.9124  -8.3277  -8.3232  -7.9051  -7.9030  -7.8675
    -7.8474  -7.7739  -7.6028  -7.5729  -7.1234  -7.0822  -6.9631  -6.8924
    -6.8879  -6.8452  -6.5360  -6.5303  -6.2610  -5.3428  -5.3053  -5.1462
    -5.0687  -4.8010  -4.7905  -4.7425  -4.6054  -4.5991  -4.3460  -4.3228
    -1.4638   0.4116   0.8057   0.9572   1.0540   1.1402   1.2020   1.3033
     1.5009   1.5261   1.6055   1.6650   1.7844   1.8169   1.8698   1.9350
     2.0265   2.0671   2.1218   2.1400   2.2606   2.3541

          k =-0.0000-0.1925 0.0000 ( 59226 PWs)   bands (ev):

   -68.6898 -68.6790 -40.3749 -40.2687 -40.1238 -40.1132 -40.0466 -40.0359
   -21.3161 -20.5331 -20.3546 -20.3442 -19.9878 -19.9782 -19.8115 -18.7309
   -18.7214 -18.4074 -18.3639 -18.3543 -18.2577 -18.2545 -18.0831 -18.0744
   -12.5172 -12.5001 -12.4112 -11.5866 -11.5793 -11.4351 -11.4159 -10.9307
   -10.9276  -9.9320  -9.9307  -9.6788  -9.3834  -9.3695  -9.2333  -9.2324
    -9.0453  -9.0436  -8.9129  -8.3263  -8.3239  -7.9060  -7.9000  -7.8555
    -7.8446  -7.7759  -7.6145  -7.5888  -7.1013  -7.0824  -6.9615  -6.8930
    -6.8890  -6.8546  -6.5350  -6.5307  -6.2615  -5.3298  -5.3103  -5.1467
    -5.0682  -4.8475  -4.7719  -4.7444  -4.5952  -4.5791  -4.3455  -4.3315
    -1.4708   0.5490   0.7635   0.9435   1.0581   1.1430   1.2232   1.2401
     1.4748   1.4807   1.5336   1.6008   1.7200   1.8140   1.9153   2.0015
     2.0585   2.0681   2.1451   2.1473   2.2017   2.3365

          k = 0.5000-0.8660 0.0000 ( 59292 PWs)   bands (ev):

   -68.6898 -68.6790 -40.3749 -40.2687 -40.1238 -40.1132 -40.0466 -40.0359
   -21.0517 -21.0501 -20.4751 -20.4630 -19.4309 -19.4260 -19.4129 -19.4099
   -18.9935 -18.9921 -18.3230 -18.3213 -18.3206 -18.3190 -17.7983 -17.7873
   -12.0709 -12.0686 -12.0680 -12.0672 -11.8841 -11.8747 -11.3322 -11.3308
   -10.2406 -10.2333 -10.1387 -10.1376 -10.1299 -10.1291  -8.5722  -8.5508
    -8.5492  -8.5485  -8.5471  -8.5377  -7.8694  -7.8686  -7.8609  -7.8598
    -7.8275  -7.8202  -7.7751  -7.7437  -7.4928  -7.4907  -6.6172  -6.6089
    -6.3432  -6.3263  -6.2944  -6.2873  -6.1925  -6.1904  -5.7018  -5.6914
    -5.5475  -5.5467  -4.7130  -4.7076  -4.6934  -4.6883  -3.8831  -3.8575
    -1.4229   0.1490   0.8156   0.9913   1.0553   1.1431   1.2447   1.3859
     1.5022   1.5570   1.5713   1.7096   1.7623   1.8730   1.9057   1.9387
     1.9853   2.0908   2.1744   2.1920   2.3237   2.3595

          k =-1.0000 0.0000 0.0000 ( 59292 PWs)   bands (ev):

   -68.6898 -68.6790 -40.3749 -40.2687 -40.1238 -40.1132 -40.0466 -40.0359
   -21.0788 -21.0197 -20.4769 -20.4665 -19.4329 -19.4286 -19.4132 -19.3984
   -19.0166 -18.9702 -18.3874 -18.3127 -18.3049 -18.2802 -17.7980 -17.7896
   -12.1183 -12.0703 -12.0491 -12.0334 -11.8841 -11.8748 -11.3544 -11.3104
   -10.2461 -10.2443 -10.1339 -10.1339 -10.1270 -10.1265  -8.6126  -8.5858
    -8.5534  -8.5335  -8.5176  -8.4889  -7.8804  -7.8719  -7.8647  -7.8627
    -7.8152  -7.8141  -7.7775  -7.7551  -7.5192  -7.4667  -6.6143  -6.6089
    -6.3433  -6.3280  -6.2935  -6.2703  -6.2133  -6.1729  -5.7298  -5.6669
    -5.5710  -5.5233  -4.8106  -4.6869  -4.6703  -4.6385  -3.8780  -3.8651
    -1.4530   0.5137   0.8156   0.9144   1.0237   1.1075   1.2041   1.2692
     1.3379   1.4767   1.6065   1.6388   1.6714   1.7672   1.8589   1.9247
     2.0788   2.1173   2.1800   2.1835   2.3455   2.3703

     the Fermi energy is    -1.1573 ev

!    total energy              =   -1133.82790682 Ry

     total all-electron energy =     -6753.503610 Ry
     estimated scf accuracy    <       0.00000009 Ry
     smearing contrib. (-TS)   =      -0.00000000 Ry
     internal energy E=F+TS    =   -1133.82790682 Ry

     The total energy is F=E-TS. E is the sum of the following terms:
     one-electron contribution =   -3954.35082550 Ry
     hartree contribution      =    2005.33524477 Ry
     xc contribution           =    -186.02084959 Ry
     ewald contribution        =    1360.58517776 Ry
     DFT-D3 Dispersion         =      -0.13325912 Ry
     one-center paw contrib.   =    -359.24339513 Ry

     total magnetization       =    10.00 Bohr mag/cell
     absolute magnetization    =    10.01 Bohr mag/cell

     convergence has been achieved in  14 iterations

     Writing output data file ./mytmp/Crdimer0.14-0.1.save/
 
     init_run     :     18.89s CPU     20.30s WALL (       1 calls)
     electrons    :    518.01s CPU    564.44s WALL (       1 calls)

     Called by init_run:
     wfcinit      :     13.95s CPU     14.75s WALL (       1 calls)
     potinit      :      1.47s CPU      1.57s WALL (       1 calls)
     hinit0       :      1.51s CPU      1.60s WALL (       1 calls)

     Called by electrons:
     c_bands      :    403.87s CPU    430.24s WALL (      14 calls)
     sum_band     :     81.05s CPU     92.65s WALL (      14 calls)
     v_of_rho     :      7.59s CPU      8.38s WALL (      15 calls)
     newd         :     18.16s CPU     25.36s WALL (      15 calls)
     PAW_pot      :      6.87s CPU      7.48s WALL (      15 calls)
     mix_rho      :      0.99s CPU      1.09s WALL (      14 calls)

     Called by c_bands:
     init_us_2    :      5.04s CPU      5.09s WALL (     870 calls)
     cegterg      :    391.48s CPU    417.74s WALL (     420 calls)

     Called by *egterg:
     cdiaghg      :     24.15s CPU     37.95s WALL (    2661 calls)
     h_psi        :    239.21s CPU    249.10s WALL (    2691 calls)
     s_psi        :     26.56s CPU     26.68s WALL (    2691 calls)
     g_psi        :      0.63s CPU      0.65s WALL (    2241 calls)

     Called by h_psi:
     h_psi:calbec :     28.44s CPU     29.17s WALL (    2691 calls)
     vloc_psi     :    181.35s CPU    190.31s WALL (    2691 calls)
     add_vuspsi   :     27.17s CPU     27.34s WALL (    2691 calls)

     General routines
     calbec       :     38.15s CPU     39.10s WALL (    3111 calls)
     fft          :      9.47s CPU     14.04s WALL (     369 calls)
     ffts         :      0.11s CPU      0.12s WALL (      58 calls)
     fftw         :    187.89s CPU    197.08s WALL (  245958 calls)
     interpolate  :      0.40s CPU      0.46s WALL (      30 calls)
 
     Parallel routines
     fft_scatt_xy :     30.26s CPU     31.48s WALL (  246385 calls)
     fft_scatt_yz :     78.65s CPU     87.46s WALL (  246385 calls)
 
     PWSCF        :   8m59.01s CPU   9m49.61s WALL

 
   This run was terminated on:  14:13:54  31Mar2021            

=------------------------------------------------------------------------------=
   JOB DONE.
=------------------------------------------------------------------------------=
