
     Program PWSCF v.6.7MaX starts on 31Mar2021 at 15:48: 4 

     This program is part of the open-source Quantum ESPRESSO suite
     for quantum simulation of materials; please cite
         "P. Giannozzi et al., J. Phys.:Condens. Matter 21 395502 (2009);
         "P. Giannozzi et al., J. Phys.:Condens. Matter 29 465901 (2017);
          URL http://www.quantum-espresso.org", 
     in publications or presentations arising from this work. More details at
     http://www.quantum-espresso.org/quote

     Parallel version (MPI), running on    48 processors

     MPI processes distributed on     1 nodes
     R & G space division:  proc/nbgrp/npool/nimage =      48
     Reading input from Crdimer0.15-0.5.scf.in

     Current dimensions of program PWSCF are:
     Max number of different atomic species (ntypx) = 10
     Max number of k-points (npk) =  40000
     Max angular momentum in pseudopotentials (lmaxx) =  3
     file N.pbe-n-kjpaw_psl.1.0.0.UPF: wavefunction(s)  2S renormalized
     file Cr.pbe-spn-kjpaw_psl.1.0.0.UPF: wavefunction(s)  3S 3P 3D renormalized
     file Cr.pbe-spn-kjpaw_psl.1.0.0.UPF: wavefunction(s)  3S 3P 3D renormalized

     --------------------------------------------
     Parameters for DFT-D3 Dispersion Correction:
     --------------------------------------------
       Reference C6 values for interpolation: 

         atom   Coordination number   C6
         B          0.000           214.36
         B          0.971           150.74
         B          1.944           106.23
         B          2.913            62.89
         B          4.586            56.06
         N          0.000            50.54
         N          0.994            44.25
         N          2.014            39.35
         N          2.990            31.16
         Cr1        0.000          1381.48
         Cr1        1.827           571.38
         Cr1       10.619           306.69
         Cr2        0.000          1381.48
         Cr2        1.827           571.38
         Cr2       10.619           306.69

       Values used:

         atom   Coordination number  R0_AB[au]  C6      C8
         B          3.336            3.039     62.89   2505.99
         B          3.340            3.039     62.89   2505.89
         B          3.335            3.039     62.89   2506.01
         B          3.335            3.039     62.89   2506.01
         B          3.340            3.039     62.89   2505.89
         B          3.336            3.039     62.89   2505.99
         N          3.134            2.478     31.22    688.69
         N          3.158            2.478     31.21    688.49
         N          3.134            2.478     31.22    688.69
         N          3.134            2.478     31.22    688.70
         N          3.141            2.478     31.22    688.63
         N          3.136            2.478     31.22    688.68
         N          3.140            2.478     31.22    688.64
         N          3.135            2.478     31.22    688.69
         N          3.134            2.478     31.22    688.70
         B          3.362            3.039     62.87   2505.31
         B          3.340            3.039     62.89   2505.89
         B          3.336            3.039     62.89   2505.99
         B          3.340            3.039     62.89   2505.89
         B          3.336            3.039     62.89   2505.99
         B          3.362            3.039     62.87   2505.31
         N          3.140            2.478     31.22    688.64
         B          3.336            3.039     62.89   2505.99
         B          3.362            3.039     62.87   2505.30
         B          3.335            3.039     62.89   2506.01
         N          3.136            2.478     31.22    688.68
         N          3.158            2.478     31.21    688.49
         N          3.135            2.478     31.22    688.69
         N          3.135            2.478     31.22    688.69
         N          3.134            2.478     31.22    688.69
         N          3.134            2.478     31.22    688.70
         B          3.335            3.039     62.89   2506.01
         Cr1        0.502            3.252   1378.94 127260.95
         Cr2        0.502            3.252   1378.94 127260.95

         Molecular C6 ( Ry / a.u.^6 ) =     79135.85


     Subspace diagonalization in iterative solution of the eigenvalue problem:
     one sub-group per band group will be used
     scalapack distributed-memory algorithm (size of sub-group:  6*  6 procs)

 
     Parallelization info
     --------------------
     sticks:   dense  smooth     PW     G-vecs:    dense   smooth      PW
     Min         235      98     26                36277     9874    1408
     Max         236      99     27                36282     9883    1425
     Sum       11311    4741   1285              1741401   474235   68095
 


     bravais-lattice index     =            4
     lattice parameter (alat)  =      18.9275  a.u.
     unit-cell volume          =   10553.3021 (a.u.)^3
     number of atoms/cell      =           34
     number of atomic types    =            4
     number of electrons       =       156.00
     number of Kohn-Sham states=           94
     kinetic-energy cutoff     =      48.0000  Ry
     charge density cutoff     =     457.0000  Ry
     scf convergence threshold =      1.0E-07
     mixing beta               =       0.5000
     number of iterations used =            8  plain     mixing
     Exchange-correlation= SLA  PW   PBX  PBC
                           (   1   4   3   4   0   0   0)

     celldm(1)=  18.927497  celldm(2)=   0.000000  celldm(3)=   1.797125
     celldm(4)=   0.000000  celldm(5)=   0.000000  celldm(6)=   0.000000

     crystal axes: (cart. coord. in units of alat)
               a(1) = (   1.000000   0.000000   0.000000 )  
               a(2) = (  -0.500000   0.866025   0.000000 )  
               a(3) = (   0.000000   0.000000   1.797125 )  

     reciprocal axes: (cart. coord. in units 2 pi/alat)
               b(1) = (  1.000000  0.577350  0.000000 )  
               b(2) = (  0.000000  1.154701  0.000000 )  
               b(3) = (  0.000000  0.000000  0.556444 )  


     PseudoPot. # 1 for B  read from file:
     /home/sf05/q-e-qe-6.7MaX-Release/pseudo/B.pbe-n-kjpaw_psl.1.0.0.UPF
     MD5 check sum: d9c678ba5d3b2fd7b74e61139c9288d8
     Pseudo is Projector augmented-wave + core cor, Zval =  3.0
     Generated using "atomic" code by A. Dal Corso  v.5.1.2
     Shape of augmentation charge: PSQ
     Using radial grid of 1059 points,  4 beta functions with: 
                l(1) =   0
                l(2) =   0
                l(3) =   1
                l(4) =   1
     Q(r) pseudized with 0 coefficients 


     PseudoPot. # 2 for N  read from file:
     /home/sf05/q-e-qe-6.7MaX-Release/pseudo/N.pbe-n-kjpaw_psl.1.0.0.UPF
     MD5 check sum: e0e4e94a9c4025c5b51bd7d8793849bd
     Pseudo is Projector augmented-wave + core cor, Zval =  5.0
     Generated using "atomic" code by A. Dal Corso  v.5.1.2
     Shape of augmentation charge: PSQ
     Using radial grid of 1085 points,  4 beta functions with: 
                l(1) =   0
                l(2) =   0
                l(3) =   1
                l(4) =   1
     Q(r) pseudized with 0 coefficients 


     PseudoPot. # 3 for Cr read from file:
     /home/sf05/q-e-qe-6.7MaX-Release/pseudo/Cr.pbe-spn-kjpaw_psl.1.0.0.UPF
     MD5 check sum: 198f1a2427a48552563eee314eba32ba
     Pseudo is Projector augmented-wave + core cor, Zval = 14.0
     Generated using &quot;atomic&quot; code by A. Dal Corso  v.6.3
     Shape of augmentation charge: PSQ
     Using radial grid of 1183 points,  6 beta functions with: 
                l(1) =   0
                l(2) =   0
                l(3) =   1
                l(4) =   1
                l(5) =   2
                l(6) =   2
     Q(r) pseudized with 0 coefficients 


     PseudoPot. # 4 for Cr read from file:
     /home/sf05/q-e-qe-6.7MaX-Release/pseudo/Cr.pbe-spn-kjpaw_psl.1.0.0.UPF
     MD5 check sum: 198f1a2427a48552563eee314eba32ba
     Pseudo is Projector augmented-wave + core cor, Zval = 14.0
     Generated using &quot;atomic&quot; code by A. Dal Corso  v.6.3
     Shape of augmentation charge: PSQ
     Using radial grid of 1183 points,  6 beta functions with: 
                l(1) =   0
                l(2) =   0
                l(3) =   1
                l(4) =   1
                l(5) =   2
                l(6) =   2
     Q(r) pseudized with 0 coefficients 


     atomic species   valence    mass     pseudopotential
        B              3.00    10.81100     B ( 1.00)
        N              5.00    14.00674     N ( 1.00)
        Cr1           14.00    51.99610     Cr( 1.00)
        Cr2           14.00    51.99610     Cr( 1.00)

     Starting magnetic structure 
     atomic species   magnetization
        B            0.000
        N            0.000
        Cr1          1.000
        Cr2          1.000

     No symmetry found



   Cartesian axes

     site n.     atom                  positions (alat units)
         1           B   tau(   1) = (  -0.1250000   0.2165064   0.8985623  )
         2           B   tau(   2) = (   0.3750000   0.6495191   0.8985623  )
         3           B   tau(   3) = (   0.2500000   0.0000000   0.8985623  )
         4           B   tau(   4) = (   0.7500000   0.0000000   0.8985623  )
         5           B   tau(   5) = (   0.1250000   0.2165064   0.8985623  )
         6           B   tau(   6) = (  -0.3750000   0.6495191   0.8985623  )
         7           N   tau(   7) = (   0.7500005   0.2886748   0.8985623  )
         8           N   tau(   8) = (   0.3750005   0.5051812   0.8985623  )
         9           N   tau(   9) = (   0.3750005   0.0721685   0.8985623  )
        10           N   tau(  10) = (   0.6250005   0.0721685   0.8985623  )
        11           N   tau(  11) = (   0.2500005   0.2886748   0.8985623  )
        12           N   tau(  12) = (   0.6250005   0.5051812   0.8985623  )
        13           N   tau(  13) = (   0.0000005   0.2886748   0.8985623  )
        14           N   tau(  14) = (   0.2500005   0.7216875   0.8985623  )
        15           N   tau(  15) = (  -0.2499995   0.7216875   0.8985623  )
        16           B   tau(  16) = (   0.0000000   0.4330127   0.8985623  )
        17           B   tau(  17) = (   0.1250000   0.6495191   0.8985623  )
        18           B   tau(  18) = (  -0.1250000   0.6495191   0.8985623  )
        19           B   tau(  19) = (   0.3750000   0.2165064   0.8985623  )
        20           B   tau(  20) = (   0.6250000   0.2165064   0.8985623  )
        21           B   tau(  21) = (   0.5000000   0.4330127   0.8985623  )
        22           N   tau(  22) = (   0.5000005   0.2886748   0.8985623  )
        23           B   tau(  23) = (  -0.2500000   0.4330127   0.8985623  )
        24           B   tau(  24) = (   0.2500000   0.4330127   0.8985623  )
        25           B   tau(  25) = (   0.5000000   0.0000000   0.8985623  )
        26           N   tau(  26) = (  -0.1249995   0.5051812   0.8985623  )
        27           N   tau(  27) = (   0.1250005   0.5051812   0.8985623  )
        28           N   tau(  28) = (   0.0000005   0.7216875   0.8985623  )
        29           N   tau(  29) = (   0.5000005   0.7216875   0.8985623  )
        30           N   tau(  30) = (   0.1250005   0.0721685   0.8985623  )
        31           N   tau(  31) = (   0.8750005   0.0721685   0.8985623  )
        32           B   tau(  32) = (   0.0000000   0.0000000   0.8985623  )
        33           Cr1 tau(  33) = (   0.4000000   0.4330127   1.2040735  )
        34           Cr2 tau(  34) = (   0.1000000   0.4330127   1.2040735  )

     number of k points=    15  Gaussian smearing, width (Ry)=  0.0000
                       cart. coord. in units 2pi/alat
        k(    1) = (   0.1666667   0.2886751   0.0000000), wk =   0.0740741
        k(    2) = (   0.1666667  -0.4811252   0.0000000), wk =   0.0740741
        k(    3) = (   0.1666667  -0.0962250   0.0000000), wk =   0.0740741
        k(    4) = (  -0.5000000  -0.8660254   0.0000000), wk =   0.0370370
        k(    5) = (  -0.1666667   0.2886751   0.0000000), wk =   0.0740741
        k(    6) = (   0.3333333   0.0000000   0.0000000), wk =   0.0740741
        k(    7) = (  -0.1666667  -0.4811252   0.0000000), wk =   0.0740741
        k(    8) = (   0.5000000  -0.0962250   0.0000000), wk =   0.0740741
        k(    9) = (  -0.3333333  -0.3849002   0.0000000), wk =   0.0740741
        k(   10) = (   0.5000000   0.0962250   0.0000000), wk =   0.0740741
        k(   11) = (  -0.3333333   0.3849002   0.0000000), wk =   0.0740741
        k(   12) = (  -0.1666667  -0.0962250   0.0000000), wk =   0.0740741
        k(   13) = (  -0.0000000  -0.1924501   0.0000000), wk =   0.0740741
        k(   14) = (   0.5000000  -0.8660254   0.0000000), wk =   0.0370370
        k(   15) = (  -1.0000000   0.0000000   0.0000000), wk =   0.0370370

     Dense  grid:  1741401 G-vectors     FFT dimensions: ( 135, 135, 240)

     Smooth grid:   474235 G-vectors     FFT dimensions: (  90,  90, 160)

     Estimated max dynamical RAM per process >     218.62 MB

     Estimated total dynamical RAM >      10.25 GB
     Generating pointlists ...
     new r_m :   0.0595 (alat units)  1.1269 (a.u.) for type    1
     new r_m :   0.0595 (alat units)  1.1269 (a.u.) for type    2
     new r_m :   0.1238 (alat units)  2.3423 (a.u.) for type    3
     new r_m :   0.1238 (alat units)  2.3423 (a.u.) for type    4

     Initial potential from superposition of free atoms

     starting charge  155.99382, renormalised to  156.00000

     negative rho (up, down):  6.674E-03 4.655E-04
     Starting wfcs are  148 randomized atomic wfcs
     Checking if some PAW data can be deallocated... 

     total cpu time spent up to now is       19.9 secs

     Self-consistent Calculation

     iteration #  1     ecut=    48.00 Ry     beta= 0.50
     Davidson diagonalization with overlap
     ethr =  1.00E-02,  avg # of iterations =  2.8

     negative rho (up, down):  4.852E-03 2.901E-03

     total cpu time spent up to now is       62.9 secs

     total energy              =   -1130.74513587 Ry
     estimated scf accuracy    <      11.36886647 Ry

     total magnetization       =    12.00 Bohr mag/cell
     absolute magnetization    =    12.12 Bohr mag/cell

     iteration #  2     ecut=    48.00 Ry     beta= 0.50
     Davidson diagonalization with overlap
     ethr =  7.29E-03,  avg # of iterations =  2.8

     negative rho (up, down):  8.811E-03 8.111E-03

     total cpu time spent up to now is      101.8 secs

     total energy              =   -1132.89404100 Ry
     estimated scf accuracy    <       3.84473929 Ry

     total magnetization       =    10.00 Bohr mag/cell
     absolute magnetization    =    10.07 Bohr mag/cell

     iteration #  3     ecut=    48.00 Ry     beta= 0.50
     Davidson diagonalization with overlap
     ethr =  2.46E-03,  avg # of iterations =  7.1

     negative rho (up, down):  4.138E-03 4.239E-03

     total cpu time spent up to now is      140.8 secs

     total energy              =   -1133.56666114 Ry
     estimated scf accuracy    <       0.86346846 Ry

     total magnetization       =    12.00 Bohr mag/cell
     absolute magnetization    =    12.06 Bohr mag/cell

     iteration #  4     ecut=    48.00 Ry     beta= 0.50
     Davidson diagonalization with overlap
     ethr =  5.54E-04,  avg # of iterations =  6.2

     negative rho (up, down):  6.604E-03 7.369E-03

     total cpu time spent up to now is      177.6 secs

     total energy              =   -1133.78195434 Ry
     estimated scf accuracy    <       0.43568504 Ry

     total magnetization       =    10.00 Bohr mag/cell
     absolute magnetization    =    10.02 Bohr mag/cell

     iteration #  5     ecut=    48.00 Ry     beta= 0.50
     Davidson diagonalization with overlap
     ethr =  2.79E-04,  avg # of iterations =  6.2

     negative rho (up, down):  4.559E-03 5.089E-03

     total cpu time spent up to now is      215.2 secs

     total energy              =   -1133.81107484 Ry
     estimated scf accuracy    <       0.02059035 Ry

     total magnetization       =    10.74 Bohr mag/cell
     absolute magnetization    =    10.75 Bohr mag/cell

     iteration #  6     ecut=    48.00 Ry     beta= 0.50
     Davidson diagonalization with overlap
     c_bands:  1 eigenvalues not converged
     c_bands:  2 eigenvalues not converged
     c_bands:  2 eigenvalues not converged
     c_bands:  1 eigenvalues not converged
     c_bands:  1 eigenvalues not converged
     c_bands:  2 eigenvalues not converged
     c_bands:  1 eigenvalues not converged
     c_bands:  2 eigenvalues not converged
     c_bands:  1 eigenvalues not converged
     c_bands:  1 eigenvalues not converged
     ethr =  1.32E-05,  avg # of iterations = 15.0

     negative rho (up, down):  3.670E-03 3.971E-03

     total cpu time spent up to now is      267.5 secs

     total energy              =   -1133.81799220 Ry
     estimated scf accuracy    <       0.01379367 Ry

     total magnetization       =    10.00 Bohr mag/cell
     absolute magnetization    =    10.02 Bohr mag/cell

     iteration #  7     ecut=    48.00 Ry     beta= 0.50
     Davidson diagonalization with overlap
     ethr =  8.84E-06,  avg # of iterations =  5.6

     negative rho (up, down):  3.388E-03 3.753E-03

     total cpu time spent up to now is      301.8 secs

     total energy              =   -1133.82088412 Ry
     estimated scf accuracy    <       0.00502755 Ry

     total magnetization       =    10.00 Bohr mag/cell
     absolute magnetization    =    10.02 Bohr mag/cell

     iteration #  8     ecut=    48.00 Ry     beta= 0.50
     Davidson diagonalization with overlap
     c_bands:  1 eigenvalues not converged
     ethr =  3.22E-06,  avg # of iterations =  7.2

     negative rho (up, down):  3.270E-03 3.686E-03

     total cpu time spent up to now is      339.2 secs

     total energy              =   -1133.82210692 Ry
     estimated scf accuracy    <       0.00340090 Ry

     total magnetization       =    10.00 Bohr mag/cell
     absolute magnetization    =    10.02 Bohr mag/cell

     iteration #  9     ecut=    48.00 Ry     beta= 0.50
     Davidson diagonalization with overlap
     ethr =  2.18E-06,  avg # of iterations =  7.8

     negative rho (up, down):  3.107E-03 3.672E-03

     total cpu time spent up to now is      376.6 secs

     total energy              =   -1133.82312960 Ry
     estimated scf accuracy    <       0.00045815 Ry

     total magnetization       =    10.00 Bohr mag/cell
     absolute magnetization    =    10.01 Bohr mag/cell

     iteration # 10     ecut=    48.00 Ry     beta= 0.50
     Davidson diagonalization with overlap
     ethr =  2.94E-07,  avg # of iterations =  4.1

     negative rho (up, down):  3.098E-03 3.680E-03

     total cpu time spent up to now is      409.9 secs

     total energy              =   -1133.82340998 Ry
     estimated scf accuracy    <       0.00008828 Ry

     total magnetization       =    10.00 Bohr mag/cell
     absolute magnetization    =    10.01 Bohr mag/cell

     iteration # 11     ecut=    48.00 Ry     beta= 0.50
     Davidson diagonalization with overlap
     ethr =  5.66E-08,  avg # of iterations =  4.5

     negative rho (up, down):  3.100E-03 3.700E-03

     total cpu time spent up to now is      443.2 secs

     total energy              =   -1133.82348061 Ry
     estimated scf accuracy    <       0.00001137 Ry

     total magnetization       =    10.00 Bohr mag/cell
     absolute magnetization    =    10.01 Bohr mag/cell

     iteration # 12     ecut=    48.00 Ry     beta= 0.50
     Davidson diagonalization with overlap
     ethr =  7.29E-09,  avg # of iterations =  5.2

     negative rho (up, down):  3.094E-03 3.715E-03

     total cpu time spent up to now is      480.2 secs

     total energy              =   -1133.82350006 Ry
     estimated scf accuracy    <       0.00000495 Ry

     total magnetization       =    10.00 Bohr mag/cell
     absolute magnetization    =    10.01 Bohr mag/cell

     iteration # 13     ecut=    48.00 Ry     beta= 0.50
     Davidson diagonalization with overlap
     ethr =  3.17E-09,  avg # of iterations =  4.7

     negative rho (up, down):  3.085E-03 3.726E-03

     total cpu time spent up to now is      513.5 secs

     total energy              =   -1133.82350628 Ry
     estimated scf accuracy    <       0.00000098 Ry

     total magnetization       =    10.00 Bohr mag/cell
     absolute magnetization    =    10.01 Bohr mag/cell

     iteration # 14     ecut=    48.00 Ry     beta= 0.50
     Davidson diagonalization with overlap
     ethr =  6.30E-10,  avg # of iterations =  4.7

     negative rho (up, down):  3.084E-03 3.732E-03

     total cpu time spent up to now is      548.1 secs

     total energy              =   -1133.82350766 Ry
     estimated scf accuracy    <       0.00000046 Ry

     total magnetization       =    10.00 Bohr mag/cell
     absolute magnetization    =    10.01 Bohr mag/cell

     iteration # 15     ecut=    48.00 Ry     beta= 0.50
     Davidson diagonalization with overlap
     ethr =  2.96E-10,  avg # of iterations =  4.8

     negative rho (up, down):  3.083E-03 3.732E-03
 
     Magnetic moment per site:
     atom:    1    charge:    0.8806    magn:    0.0004    constr:    0.0000
     atom:    2    charge:    0.8801    magn:    0.0008    constr:    0.0000
     atom:    3    charge:    0.8802    magn:    0.0001    constr:    0.0000
     atom:    4    charge:    0.8803    magn:    0.0001    constr:    0.0000
     atom:    5    charge:    0.8800    magn:    0.0001    constr:    0.0000
     atom:    6    charge:    0.8805    magn:    0.0001    constr:    0.0000
     atom:    7    charge:    2.8610    magn:    0.0005    constr:    0.0000
     atom:    8    charge:    2.8610    magn:    0.0060    constr:    0.0000
     atom:    9    charge:    2.8609    magn:    0.0003    constr:    0.0000
     atom:   10    charge:    2.8609    magn:    0.0002    constr:    0.0000
     atom:   11    charge:    2.8604    magn:    0.0041    constr:    0.0000
     atom:   12    charge:    2.8609    magn:    0.0016    constr:    0.0000
     atom:   13    charge:    2.8596    magn:    0.0042    constr:    0.0000
     atom:   14    charge:    2.8597    magn:    0.0008    constr:    0.0000
     atom:   15    charge:    2.8600    magn:    0.0000    constr:    0.0000
     atom:   16    charge:    0.8808    magn:   -0.0000    constr:    0.0000
     atom:   17    charge:    0.8798    magn:    0.0008    constr:    0.0000
     atom:   18    charge:    0.8802    magn:    0.0001    constr:    0.0000
     atom:   19    charge:    0.8794    magn:    0.0001    constr:    0.0000
     atom:   20    charge:    0.8800    magn:    0.0004    constr:    0.0000
     atom:   21    charge:    0.8805    magn:   -0.0000    constr:    0.0000
     atom:   22    charge:    2.8609    magn:    0.0042    constr:    0.0000
     atom:   23    charge:    0.8804    magn:    0.0002    constr:    0.0000
     atom:   24    charge:    0.8787    magn:    0.0003    constr:    0.0000
     atom:   25    charge:    0.8799    magn:    0.0001    constr:    0.0000
     atom:   26    charge:    2.8598    magn:    0.0016    constr:    0.0000
     atom:   27    charge:    2.8598    magn:    0.0060    constr:    0.0000
     atom:   28    charge:    2.8598    magn:    0.0007    constr:    0.0000
     atom:   29    charge:    2.8596    magn:    0.0007    constr:    0.0000
     atom:   30    charge:    2.8596    magn:    0.0003    constr:    0.0000
     atom:   31    charge:    2.8596    magn:    0.0002    constr:    0.0000
     atom:   32    charge:    0.8802    magn:    0.0001    constr:    0.0000
     atom:   33    charge:   12.6782    magn:    4.3496    constr:    0.0000
     atom:   34    charge:   12.6781    magn:    4.3496    constr:    0.0000

     total cpu time spent up to now is      582.1 secs

     End of self-consistent calculation

 ------ SPIN UP ------------


          k = 0.1667 0.2887 0.0000 ( 59267 PWs)   bands (ev):

   -72.8881 -72.8844 -44.4203 -44.3769 -44.2910 -44.2870 -44.2647 -44.2607
   -21.2487 -20.6621 -20.6580 -20.1069 -20.0979 -19.5888 -19.5854 -19.1014
   -18.6991 -18.6938 -18.4602 -18.4518 -18.1970 -18.0873 -18.0801 -17.8516
   -12.4859 -12.2095 -12.2025 -11.8229 -11.8196 -11.6605 -11.1934 -11.1913
   -10.3939 -10.3696 -10.1197 -10.1169  -9.5908  -9.5903  -8.8381  -8.8284
    -8.8243  -8.7681  -8.7639  -8.5985  -8.1991  -8.0524  -8.0184  -7.8315
    -7.8289  -7.4410  -7.4387  -7.2867  -7.2575  -7.2099  -7.2087  -6.9638
    -6.9562  -6.5670  -6.5405  -6.1558  -6.1550  -5.8734  -5.4206  -5.2978
    -5.2755  -5.2023  -4.9154  -4.9010  -4.5093  -4.3593  -4.3412  -3.9814
    -2.7381  -1.9477  -1.9262  -1.7753  -1.6253  -1.5720  -1.5216  -1.5052
    -1.4389  -1.4344  -1.3849  -0.8385   0.6950   0.8317   1.0652   1.1987
     1.2899   1.4779   1.5150   1.5727   1.6062   1.7993

          k = 0.1667-0.4811 0.0000 ( 59291 PWs)   bands (ev):

   -72.8881 -72.8844 -44.4203 -44.3769 -44.2910 -44.2870 -44.2648 -44.2607
   -21.1184 -20.9139 -20.7248 -20.1628 -19.8062 -19.4685 -19.3189 -19.1767
   -19.0163 -18.7807 -18.6436 -18.5461 -18.1513 -18.0911 -17.9242 -17.7259
   -12.3500 -12.1152 -12.0466 -11.9083 -11.6823 -11.6609 -11.5545 -10.9440
   -10.8921 -10.6254 -10.5250  -9.8623  -9.6952  -9.3381  -9.1129  -8.6693
    -8.6248  -8.5552  -8.3910  -8.3685  -8.1636  -8.1251  -8.0648  -8.0521
    -7.6907  -7.6254  -7.4962  -7.4762  -7.3580  -7.1728  -7.0697  -6.8622
    -6.6241  -6.3908  -6.1792  -6.1598  -5.9744  -5.9313  -5.7858  -5.7467
    -5.4535  -5.3992  -5.2111  -5.0434  -4.4469  -4.3495  -4.0911  -3.7691
    -2.7345  -1.9473  -1.9268  -1.7719  -1.6235  -1.5717  -1.5244  -1.5056
    -1.4386  -1.4343  -1.3869  -0.8428   0.6114   0.8089   1.0827   1.1117
     1.2384   1.2719   1.3934   1.8383   1.9324   2.0988

          k = 0.1667-0.0962 0.0000 ( 59226 PWs)   bands (ev):

   -72.8881 -72.8844 -44.4203 -44.3769 -44.2910 -44.2870 -44.2647 -44.2607
   -21.3152 -20.5376 -20.3488 -20.3393 -19.9917 -19.9814 -19.8077 -18.7328
   -18.7228 -18.3779 -18.3693 -18.3569 -18.2722 -18.2628 -18.0805 -18.0722
   -12.5104 -12.5031 -12.4100 -11.5839 -11.5774 -11.4296 -11.4213 -10.9284
   -10.9253  -9.9319  -9.9275  -9.6777  -9.3769  -9.3743  -9.2325  -9.2298
    -9.0443  -9.0422  -8.9250  -8.3263  -8.3229  -7.9037  -7.9013  -7.8825
    -7.8470  -7.7724  -7.6121  -7.5827  -7.1376  -7.0928  -6.9613  -6.8904
    -6.8871  -6.8527  -6.5340  -6.5296  -6.2595  -5.3538  -5.3170  -5.1454
    -5.0673  -4.8106  -4.8015  -4.7501  -4.6178  -4.6092  -4.3565  -4.3317
    -2.7419  -1.9480  -1.9257  -1.7786  -1.6279  -1.5722  -1.5188  -1.5048
    -1.4392  -1.4346  -1.3830  -0.8341   0.7734   0.8604   1.0164   1.2071
     1.2613   1.3427   1.5799   1.5967   1.7254   1.9002

          k =-0.5000-0.8660 0.0000 ( 59292 PWs)   bands (ev):

   -72.8881 -72.8844 -44.4203 -44.3769 -44.2910 -44.2870 -44.2647 -44.2607
   -21.0515 -21.0486 -20.4731 -20.4641 -19.4311 -19.4204 -19.4168 -19.4095
   -18.9938 -18.9914 -18.3265 -18.3236 -18.3198 -18.3140 -17.7973 -17.7889
   -12.0724 -12.0685 -12.0660 -12.0613 -11.8814 -11.8736 -11.3310 -11.3294
   -10.2380 -10.2324 -10.1383 -10.1344 -10.1318 -10.1270  -8.5883  -8.5537
    -8.5488  -8.5475  -8.5465  -8.5403  -7.8669  -7.8654  -7.8606  -7.8591
    -7.8273  -7.8208  -7.7841  -7.7540  -7.4925  -7.4879  -6.6149  -6.6083
    -6.3650  -6.3299  -6.3099  -6.2935  -6.1921  -6.1894  -5.7126  -5.6990
    -5.5479  -5.5436  -4.7285  -4.7187  -4.7004  -4.6958  -3.8921  -3.8672
    -2.7176  -1.9446  -1.9255  -1.7737  -1.6260  -1.5709  -1.5274  -1.5047
    -1.4437  -1.4383  -1.3904  -0.9686   0.8112   0.9923   1.1192   1.1900
     1.3506   1.5547   1.5774   1.6012   1.7113   1.7280

          k =-0.1667 0.2887 0.0000 ( 59267 PWs)   bands (ev):

   -72.8881 -72.8844 -44.4203 -44.3769 -44.2910 -44.2870 -44.2647 -44.2607
   -21.2487 -20.6622 -20.6580 -20.1069 -20.0979 -19.5888 -19.5854 -19.1014
   -18.6991 -18.6938 -18.4602 -18.4518 -18.1970 -18.0873 -18.0801 -17.8516
   -12.4859 -12.2095 -12.2025 -11.8229 -11.8196 -11.6605 -11.1934 -11.1912
   -10.3940 -10.3696 -10.1197 -10.1169  -9.5908  -9.5902  -8.8381  -8.8283
    -8.8242  -8.7681  -8.7639  -8.5985  -8.1991  -8.0524  -8.0184  -7.8315
    -7.8288  -7.4410  -7.4387  -7.2867  -7.2575  -7.2099  -7.2086  -6.9638
    -6.9562  -6.5670  -6.5405  -6.1558  -6.1549  -5.8734  -5.4207  -5.2978
    -5.2755  -5.2022  -4.9154  -4.9009  -4.5094  -4.3593  -4.3412  -3.9814
    -2.7381  -1.9477  -1.9262  -1.7753  -1.6253  -1.5720  -1.5216  -1.5052
    -1.4389  -1.4344  -1.3849  -0.8385   0.6950   0.8317   1.0652   1.1988
     1.2899   1.4779   1.5150   1.5727   1.6062   1.7993

          k = 0.3333 0.0000 0.0000 ( 59267 PWs)   bands (ev):

   -72.8881 -72.8844 -44.4203 -44.3769 -44.2910 -44.2870 -44.2647 -44.2607
   -21.2483 -20.6875 -20.6325 -20.1072 -20.0960 -19.6152 -19.5610 -19.1035
   -18.7156 -18.6722 -18.4631 -18.4508 -18.1922 -18.1104 -18.0639 -17.8508
   -12.4856 -12.2103 -12.2014 -11.8314 -11.8135 -11.6583 -11.2120 -11.1734
   -10.3930 -10.3694 -10.1325 -10.1044  -9.5974  -9.5825  -8.8465  -8.8251
    -8.8165  -8.7901  -8.7434  -8.5993  -8.2010  -8.1037  -7.9666  -7.8304
    -7.8278  -7.4467  -7.4322  -7.2951  -7.2436  -7.2199  -7.1985  -6.9660
    -6.9556  -6.6202  -6.4947  -6.1587  -6.1512  -5.8797  -5.4205  -5.3125
    -5.2503  -5.2025  -4.9224  -4.8966  -4.5003  -4.3865  -4.3267  -3.9799
    -2.7272  -1.9456  -1.9250  -1.7766  -1.6279  -1.5715  -1.5231  -1.5044
    -1.4423  -1.4373  -1.3868  -0.9260   0.8564   0.9843   1.0877   1.2533
     1.3150   1.4917   1.5056   1.5508   1.5847   1.8177

          k =-0.1667-0.4811 0.0000 ( 59291 PWs)   bands (ev):

   -72.8881 -72.8844 -44.4203 -44.3769 -44.2910 -44.2870 -44.2648 -44.2607
   -21.1184 -20.9139 -20.7248 -20.1628 -19.8062 -19.4685 -19.3188 -19.1767
   -19.0163 -18.7807 -18.6436 -18.5461 -18.1513 -18.0911 -17.9242 -17.7259
   -12.3500 -12.1151 -12.0466 -11.9082 -11.6823 -11.6609 -11.5545 -10.9440
   -10.8921 -10.6254 -10.5250  -9.8623  -9.6952  -9.3381  -9.1129  -8.6693
    -8.6247  -8.5552  -8.3910  -8.3685  -8.1636  -8.1251  -8.0648  -8.0521
    -7.6907  -7.6254  -7.4961  -7.4762  -7.3580  -7.1728  -7.0697  -6.8621
    -6.6242  -6.3908  -6.1792  -6.1599  -5.9744  -5.9312  -5.7857  -5.7466
    -5.4535  -5.3992  -5.2111  -5.0434  -4.4469  -4.3495  -4.0911  -3.7691
    -2.7345  -1.9473  -1.9268  -1.7719  -1.6235  -1.5717  -1.5244  -1.5056
    -1.4386  -1.4343  -1.3869  -0.8428   0.6114   0.8089   1.0827   1.1117
     1.2384   1.2719   1.3934   1.8383   1.9323   2.0988

          k = 0.5000-0.0962 0.0000 ( 59291 PWs)   bands (ev):

   -72.8881 -72.8844 -44.4203 -44.3769 -44.2910 -44.2870 -44.2647 -44.2607
   -21.1156 -20.9216 -20.7199 -20.1609 -19.8063 -19.4706 -19.3247 -19.1716
   -19.0173 -18.7817 -18.6329 -18.5524 -18.1387 -18.1081 -17.9212 -17.7256
   -12.3490 -12.1157 -12.0445 -11.9123 -11.6946 -11.6461 -11.5569 -10.9444
   -10.8899 -10.6237 -10.5275  -9.8599  -9.6959  -9.3392  -9.1123  -8.6585
    -8.6254  -8.5530  -8.4023  -8.3933  -8.1615  -8.1047  -8.0780  -8.0403
    -7.6866  -7.6259  -7.4952  -7.4774  -7.3516  -7.1743  -7.0706  -6.8616
    -6.6246  -6.4001  -6.1962  -6.1593  -5.9584  -5.9305  -5.7850  -5.7497
    -5.4546  -5.3996  -5.1873  -5.0583  -4.4239  -4.3788  -4.0876  -3.7685
    -2.7177  -1.9446  -1.9255  -1.7737  -1.6265  -1.5710  -1.5273  -1.5047
    -1.4437  -1.4383  -1.3904  -0.9684   0.7960   0.9878   1.1235   1.1574
     1.3015   1.3201   1.5281   1.7307   1.8070   1.9072

          k =-0.3333-0.3849 0.0000 ( 59291 PWs)   bands (ev):

   -72.8881 -72.8844 -44.4203 -44.3769 -44.2910 -44.2870 -44.2647 -44.2607
   -21.1166 -20.9189 -20.7218 -20.1607 -19.8084 -19.4686 -19.3196 -19.1752
   -19.0203 -18.7799 -18.6344 -18.5515 -18.1414 -18.1049 -17.9213 -17.7258
   -12.3495 -12.1137 -12.0469 -11.9113 -11.6834 -11.6586 -11.5558 -10.9442
   -10.8896 -10.6231 -10.5284  -9.8607  -9.6959  -9.3385  -9.1132  -8.6619
    -8.6240  -8.5552  -8.3934  -8.3878  -8.1630  -8.1124  -8.0648  -8.0548
    -7.6870  -7.6243  -7.5020  -7.4711  -7.3503  -7.1744  -7.0711  -6.8698
    -6.6225  -6.3917  -6.1803  -6.1616  -5.9713  -5.9294  -5.7851  -5.7586
    -5.4545  -5.3942  -5.1879  -5.0589  -4.4267  -4.3760  -4.0869  -3.7688
    -2.7233  -1.9457  -1.9261  -1.7731  -1.6252  -1.5712  -1.5261  -1.5052
    -1.4419  -1.4370  -1.3892  -0.9300   0.7297   0.9465   1.1050   1.1618
     1.2313   1.3757   1.4066   1.7855   1.8827   1.9107

          k = 0.5000 0.0962 0.0000 ( 59291 PWs)   bands (ev):

   -72.8881 -72.8844 -44.4203 -44.3769 -44.2910 -44.2870 -44.2647 -44.2607
   -21.1156 -20.9216 -20.7199 -20.1609 -19.8063 -19.4706 -19.3247 -19.1716
   -19.0173 -18.7817 -18.6329 -18.5524 -18.1387 -18.1081 -17.9212 -17.7256
   -12.3490 -12.1157 -12.0445 -11.9123 -11.6945 -11.6461 -11.5569 -10.9443
   -10.8899 -10.6237 -10.5275  -9.8600  -9.6959  -9.3391  -9.1123  -8.6585
    -8.6254  -8.5530  -8.4023  -8.3933  -8.1615  -8.1047  -8.0780  -8.0402
    -7.6867  -7.6259  -7.4952  -7.4775  -7.3516  -7.1744  -7.0705  -6.8616
    -6.6245  -6.4001  -6.1962  -6.1592  -5.9585  -5.9305  -5.7851  -5.7497
    -5.4546  -5.3996  -5.1873  -5.0583  -4.4239  -4.3788  -4.0876  -3.7685
    -2.7177  -1.9446  -1.9255  -1.7737  -1.6265  -1.5710  -1.5273  -1.5047
    -1.4437  -1.4383  -1.3904  -0.9684   0.7960   0.9878   1.1235   1.1574
     1.3015   1.3201   1.5281   1.7308   1.8069   1.9072

          k =-0.3333 0.3849 0.0000 ( 59291 PWs)   bands (ev):

   -72.8881 -72.8844 -44.4203 -44.3769 -44.2910 -44.2870 -44.2647 -44.2607
   -21.1166 -20.9189 -20.7218 -20.1607 -19.8084 -19.4686 -19.3196 -19.1752
   -19.0203 -18.7799 -18.6344 -18.5515 -18.1414 -18.1049 -17.9213 -17.7258
   -12.3495 -12.1137 -12.0469 -11.9113 -11.6834 -11.6586 -11.5558 -10.9442
   -10.8895 -10.6230 -10.5284  -9.8607  -9.6959  -9.3385  -9.1132  -8.6619
    -8.6241  -8.5551  -8.3934  -8.3878  -8.1631  -8.1124  -8.0647  -8.0547
    -7.6869  -7.6243  -7.5020  -7.4711  -7.3503  -7.1743  -7.0712  -6.8698
    -6.6225  -6.3917  -6.1803  -6.1616  -5.9713  -5.9295  -5.7850  -5.7586
    -5.4544  -5.3942  -5.1879  -5.0589  -4.4267  -4.3760  -4.0869  -3.7688
    -2.7233  -1.9457  -1.9261  -1.7731  -1.6252  -1.5712  -1.5261  -1.5052
    -1.4419  -1.4370  -1.3892  -0.9300   0.7297   0.9465   1.1049   1.1618
     1.2313   1.3757   1.4066   1.7855   1.8828   1.9106

          k =-0.1667-0.0962 0.0000 ( 59226 PWs)   bands (ev):

   -72.8881 -72.8844 -44.4203 -44.3769 -44.2910 -44.2870 -44.2647 -44.2607
   -21.3152 -20.5376 -20.3488 -20.3393 -19.9917 -19.9814 -19.8077 -18.7328
   -18.7228 -18.3779 -18.3693 -18.3569 -18.2722 -18.2628 -18.0805 -18.0722
   -12.5104 -12.5031 -12.4100 -11.5839 -11.5774 -11.4296 -11.4213 -10.9284
   -10.9253  -9.9319  -9.9276  -9.6776  -9.3769  -9.3742  -9.2325  -9.2298
    -9.0443  -9.0422  -8.9250  -8.3263  -8.3229  -7.9037  -7.9012  -7.8825
    -7.8470  -7.7724  -7.6121  -7.5827  -7.1376  -7.0928  -6.9614  -6.8904
    -6.8870  -6.8528  -6.5340  -6.5296  -6.2596  -5.3538  -5.3170  -5.1453
    -5.0674  -4.8106  -4.8015  -4.7501  -4.6178  -4.6092  -4.3565  -4.3317
    -2.7419  -1.9480  -1.9257  -1.7786  -1.6279  -1.5722  -1.5188  -1.5048
    -1.4392  -1.4346  -1.3830  -0.8341   0.7734   0.8604   1.0164   1.2071
     1.2614   1.3428   1.5799   1.5967   1.7254   1.9001

          k =-0.0000-0.1925 0.0000 ( 59226 PWs)   bands (ev):

   -72.8881 -72.8844 -44.4203 -44.3769 -44.2910 -44.2870 -44.2647 -44.2607
   -21.3153 -20.5325 -20.3562 -20.3408 -19.9895 -19.9760 -19.8113 -18.7329
   -18.7190 -18.3955 -18.3754 -18.3536 -18.2566 -18.2566 -18.0854 -18.0725
   -12.5114 -12.5023 -12.4098 -11.5865 -11.5765 -11.4282 -11.4195 -10.9302
   -10.9254  -9.9309  -9.9284  -9.6781  -9.3773  -9.3726  -9.2319  -9.2308
    -9.0443  -9.0424  -8.9257  -8.3257  -8.3225  -7.9026  -7.9008  -7.8648
    -7.8452  -7.7742  -7.6389  -7.5908  -7.1171  -7.0855  -6.9599  -6.8925
    -6.8866  -6.8652  -6.5347  -6.5281  -6.2602  -5.3480  -5.3142  -5.1455
    -5.0672  -4.8375  -4.8098  -4.7536  -4.5967  -4.5906  -4.3615  -4.3362
    -2.7472  -1.9491  -1.9262  -1.7779  -1.6266  -1.5724  -1.5183  -1.5051
    -1.4376  -1.4330  -1.3823  -0.7833   0.6535   0.8145   1.0034   1.1793
     1.2445   1.3783   1.5709   1.6161   1.6867   1.9954

          k = 0.5000-0.8660 0.0000 ( 59292 PWs)   bands (ev):

   -72.8881 -72.8844 -44.4203 -44.3769 -44.2910 -44.2870 -44.2647 -44.2607
   -21.0515 -21.0486 -20.4731 -20.4641 -19.4311 -19.4203 -19.4168 -19.4095
   -18.9938 -18.9913 -18.3266 -18.3236 -18.3198 -18.3140 -17.7973 -17.7889
   -12.0724 -12.0685 -12.0661 -12.0612 -11.8814 -11.8736 -11.3310 -11.3293
   -10.2380 -10.2324 -10.1383 -10.1344 -10.1318 -10.1270  -8.5883  -8.5537
    -8.5489  -8.5475  -8.5464  -8.5402  -7.8669  -7.8654  -7.8605  -7.8591
    -7.8273  -7.8208  -7.7841  -7.7540  -7.4925  -7.4880  -6.6148  -6.6083
    -6.3650  -6.3299  -6.3099  -6.2935  -6.1921  -6.1893  -5.7126  -5.6990
    -5.5480  -5.5437  -4.7285  -4.7187  -4.7004  -4.6958  -3.8921  -3.8672
    -2.7176  -1.9446  -1.9255  -1.7737  -1.6260  -1.5709  -1.5274  -1.5047
    -1.4437  -1.4383  -1.3904  -0.9686   0.8112   0.9924   1.1192   1.1900
     1.3506   1.5548   1.5773   1.6015   1.7116   1.7279

          k =-1.0000 0.0000 0.0000 ( 59292 PWs)   bands (ev):

   -72.8881 -72.8844 -44.4203 -44.3769 -44.2910 -44.2870 -44.2648 -44.2607
   -21.0762 -21.0211 -20.4785 -20.4635 -19.4261 -19.4236 -19.4213 -19.4007
   -19.0148 -18.9719 -18.3728 -18.3373 -18.2930 -18.2817 -17.8003 -17.7876
   -12.1041 -12.0831 -12.0408 -12.0362 -11.8842 -11.8717 -11.3524 -11.3103
   -10.2439 -10.2413 -10.1343 -10.1332 -10.1260 -10.1248  -8.6332  -8.5765
    -8.5597  -8.5292  -8.5186  -8.4924  -7.8776  -7.8713  -7.8624  -7.8613
    -7.8197  -7.8152  -7.7936  -7.7571  -7.5156  -7.4671  -6.6147  -6.6056
    -6.3612  -6.3266  -6.3120  -6.2783  -6.2103  -6.1741  -5.7398  -5.6792
    -5.5684  -5.5236  -4.7955  -4.7555  -4.6502  -4.6452  -3.8920  -3.8696
    -2.7400  -1.9480  -1.9269  -1.7713  -1.6227  -1.5719  -1.5239  -1.5056
    -1.4371  -1.4329  -1.3859  -0.7928   0.5669   0.7145   1.0791   1.1085
     1.1877   1.5436   1.5735   1.5984   1.6405   1.9438

 ------ SPIN DOWN ----------


          k = 0.1667 0.2887 0.0000 ( 59267 PWs)   bands (ev):

   -68.6773 -68.6729 -40.3324 -40.2794 -40.1009 -40.0959 -40.0516 -40.0467
   -21.2451 -20.6588 -20.6541 -20.1028 -20.0947 -19.5859 -19.5811 -19.0976
   -18.6949 -18.6896 -18.4560 -18.4484 -18.1924 -18.0836 -18.0769 -17.8477
   -12.4836 -12.2067 -12.2004 -11.8207 -11.8175 -11.6585 -11.1912 -11.1886
   -10.3912 -10.3672 -10.1170 -10.1142  -9.5884  -9.5878  -8.8262  -8.8219
    -8.8183  -8.7662  -8.7612  -8.5962  -8.1969  -8.0299  -8.0084  -7.8290
    -7.8267  -7.4376  -7.4358  -7.2667  -7.2459  -7.2080  -7.2059  -6.9612
    -6.9541  -6.5471  -6.5318  -6.1533  -6.1525  -5.8579  -5.4177  -5.2756
    -5.2642  -5.1997  -4.9005  -4.8894  -4.4925  -4.3441  -4.3329  -3.9680
    -1.4054   0.3386   0.8424   1.0511   1.1691   1.2346   1.2804   1.3581
     1.4530   1.4962   1.5542   1.5896   1.6259   1.7553   1.9164   1.9870
     2.0224   2.0568   2.1216   2.1818   2.2639   2.3020

          k = 0.1667-0.4811 0.0000 ( 59291 PWs)   bands (ev):

   -68.6773 -68.6729 -40.3324 -40.2794 -40.1009 -40.0960 -40.0517 -40.0467
   -21.1144 -20.9108 -20.7211 -20.1590 -19.8026 -19.4648 -19.3152 -19.1727
   -19.0126 -18.7770 -18.6385 -18.5431 -18.1457 -18.0890 -17.9201 -17.7219
   -12.3477 -12.1128 -12.0444 -11.9061 -11.6804 -11.6583 -11.5523 -10.9414
   -10.8894 -10.6228 -10.5227  -9.8594  -9.6929  -9.3353  -9.1105  -8.6472
    -8.6223  -8.5522  -8.3888  -8.3573  -8.1611  -8.1084  -8.0626  -8.0497
    -7.6880  -7.6230  -7.4937  -7.4740  -7.3409  -7.1700  -7.0674  -6.8470
    -6.6210  -6.3759  -6.1638  -6.1573  -5.9595  -5.9282  -5.7831  -5.7322
    -5.4510  -5.3850  -5.1897  -5.0345  -4.4267  -4.3433  -4.0777  -3.7560
    -1.3953   0.3257   0.8404   1.0054   1.0416   1.1484   1.2635   1.3164
     1.3984   1.4543   1.5565   1.7207   1.8109   1.8798   1.9170   2.0471
     2.0853   2.1279   2.1409   2.2133   2.2951   2.3072

          k = 0.1667-0.0962 0.0000 ( 59226 PWs)   bands (ev):

   -68.6773 -68.6729 -40.3324 -40.2794 -40.1009 -40.0959 -40.0516 -40.0467
   -21.3116 -20.5335 -20.3452 -20.3363 -19.9872 -19.9781 -19.8045 -18.7280
   -18.7191 -18.3732 -18.3658 -18.3532 -18.2677 -18.2591 -18.0768 -18.0690
   -12.5077 -12.5011 -12.4077 -11.5814 -11.5755 -11.4268 -11.4193 -10.9258
   -10.9230  -9.9292  -9.9254  -9.6749  -9.3744  -9.3719  -9.2294  -9.2271
    -9.0419  -9.0399  -8.9073  -8.3231  -8.3201  -7.9010  -7.8988  -7.8617
    -7.8432  -7.7701  -7.5963  -7.5725  -7.1140  -7.0819  -6.9588  -6.8879
    -6.8850  -6.8427  -6.5313  -6.5274  -6.2571  -5.3314  -5.3052  -5.1426
    -5.0647  -4.7928  -4.7857  -4.7390  -4.6040  -4.5962  -4.3414  -4.3224
    -1.4154   0.3534   0.8483   1.0296   1.1404   1.2094   1.2222   1.3554
     1.4767   1.5342   1.5821   1.7009   1.7855   1.8619   1.8967   1.9358
     1.9844   2.0584   2.0847   2.1312   2.2237   2.2740

          k =-0.5000-0.8660 0.0000 ( 59292 PWs)   bands (ev):

   -68.6773 -68.6729 -40.3324 -40.2794 -40.1009 -40.0960 -40.0516 -40.0467
   -21.0485 -21.0442 -20.4694 -20.4609 -19.4259 -19.4165 -19.4133 -19.4065
   -18.9909 -18.9870 -18.3211 -18.3204 -18.3180 -18.3086 -17.7931 -17.7853
   -12.0687 -12.0668 -12.0646 -12.0586 -11.8790 -11.8720 -11.3289 -11.3266
   -10.2352 -10.2303 -10.1350 -10.1317 -10.1292 -10.1249  -8.5622  -8.5470
    -8.5465  -8.5448  -8.5432  -8.5350  -7.8642  -7.8627  -7.8585  -7.8570
    -7.8236  -7.8177  -7.7675  -7.7434  -7.4908  -7.4851  -6.6118  -6.6061
    -6.3354  -6.3125  -6.2990  -6.2851  -6.1899  -6.1861  -5.6954  -5.6898
    -5.5458  -5.5406  -4.7079  -4.6974  -4.6920  -4.6893  -3.8761  -3.8573
    -1.3675   0.0786   0.8465   1.0603   1.1296   1.2157   1.3208   1.4358
     1.5097   1.5461   1.5975   1.7178   1.7553   1.8772   1.9033   1.9450
     1.9681   2.0601   2.1371   2.1945   2.2884   2.3192

          k =-0.1667 0.2887 0.0000 ( 59267 PWs)   bands (ev):

   -68.6773 -68.6729 -40.3324 -40.2794 -40.1009 -40.0959 -40.0516 -40.0467
   -21.2451 -20.6589 -20.6541 -20.1028 -20.0947 -19.5859 -19.5811 -19.0976
   -18.6949 -18.6896 -18.4560 -18.4484 -18.1924 -18.0837 -18.0768 -17.8477
   -12.4836 -12.2067 -12.2004 -11.8207 -11.8175 -11.6585 -11.1912 -11.1885
   -10.3912 -10.3672 -10.1170 -10.1142  -9.5884  -9.5878  -8.8262  -8.8218
    -8.8183  -8.7662  -8.7612  -8.5962  -8.1969  -8.0299  -8.0084  -7.8290
    -7.8266  -7.4376  -7.4358  -7.2667  -7.2459  -7.2080  -7.2059  -6.9613
    -6.9541  -6.5471  -6.5318  -6.1533  -6.1524  -5.8579  -5.4178  -5.2756
    -5.2642  -5.1996  -4.9005  -4.8894  -4.4926  -4.3441  -4.3329  -3.9680
    -1.4054   0.3386   0.8424   1.0511   1.1691   1.2346   1.2804   1.3581
     1.4530   1.4962   1.5542   1.5896   1.6259   1.7553   1.9164   1.9871
     2.0223   2.0568   2.1216   2.1819   2.2640   2.3020

          k = 0.3333 0.0000 0.0000 ( 59267 PWs)   bands (ev):

   -68.6773 -68.6729 -40.3324 -40.2794 -40.1009 -40.0959 -40.0516 -40.0467
   -21.2447 -20.6821 -20.6307 -20.1036 -20.0925 -19.6097 -19.5591 -19.0995
   -18.7097 -18.6704 -18.4590 -18.4470 -18.1884 -18.1042 -18.0621 -17.8470
   -12.4833 -12.2080 -12.1990 -11.8289 -11.8115 -11.6565 -11.2085 -11.1719
   -10.3904 -10.3669 -10.1289 -10.1028  -9.5946  -9.5806  -8.8333  -8.8217
    -8.8093  -8.7866  -8.7422  -8.5970  -8.1985  -8.0753  -7.9628  -7.8281
    -7.8257  -7.4430  -7.4300  -7.2742  -7.2344  -7.2169  -7.1969  -6.9634
    -6.9533  -6.5935  -6.4907  -6.1559  -6.1491  -5.8625  -5.4176  -5.2924
    -5.2400  -5.1999  -4.9063  -4.8855  -4.4859  -4.3689  -4.3173  -3.9670
    -1.3878   0.1627   0.9027   1.0224   1.1760   1.2276   1.2927   1.4506
     1.4723   1.4928   1.5547   1.7279   1.7758   1.8488   1.8654   1.9575
     2.0052   2.0768   2.1134   2.1637   2.2625   2.2938

          k =-0.1667-0.4811 0.0000 ( 59291 PWs)   bands (ev):

   -68.6773 -68.6729 -40.3324 -40.2794 -40.1009 -40.0960 -40.0517 -40.0467
   -21.1144 -20.9108 -20.7211 -20.1590 -19.8026 -19.4648 -19.3152 -19.1727
   -19.0126 -18.7770 -18.6385 -18.5431 -18.1457 -18.0890 -17.9201 -17.7219
   -12.3477 -12.1128 -12.0444 -11.9061 -11.6804 -11.6583 -11.5523 -10.9414
   -10.8894 -10.6228 -10.5227  -9.8594  -9.6929  -9.3354  -9.1105  -8.6472
    -8.6223  -8.5523  -8.3888  -8.3573  -8.1611  -8.1084  -8.0626  -8.0498
    -7.6880  -7.6230  -7.4937  -7.4740  -7.3409  -7.1700  -7.0674  -6.8470
    -6.6211  -6.3759  -6.1638  -6.1574  -5.9595  -5.9282  -5.7831  -5.7322
    -5.4511  -5.3850  -5.1897  -5.0346  -4.4267  -4.3433  -4.0777  -3.7560
    -1.3953   0.3257   0.8404   1.0054   1.0416   1.1484   1.2635   1.3164
     1.3984   1.4543   1.5565   1.7207   1.8109   1.8798   1.9170   2.0471
     2.0853   2.1279   2.1408   2.2133   2.2952   2.3074

          k = 0.5000-0.0962 0.0000 ( 59291 PWs)   bands (ev):

   -68.6773 -68.6729 -40.3324 -40.2794 -40.1009 -40.0959 -40.0516 -40.0467
   -21.1120 -20.9175 -20.7168 -20.1573 -19.8027 -19.4666 -19.3203 -19.1684
   -19.0135 -18.7779 -18.6294 -18.5484 -18.1349 -18.1035 -17.9177 -17.7216
   -12.3467 -12.1133 -12.0425 -11.9098 -11.6918 -11.6446 -11.5544 -10.9418
   -10.8874 -10.6212 -10.5250  -9.8573  -9.6935  -9.3362  -9.1100  -8.6396
    -8.6227  -8.5504  -8.3931  -8.3793  -8.1593  -8.0940  -8.0746  -8.0390
    -7.6844  -7.6235  -7.4928  -7.4752  -7.3363  -7.1713  -7.0681  -6.8466
    -6.6214  -6.3817  -6.1764  -6.1569  -5.9484  -5.9276  -5.7824  -5.7342
    -5.4520  -5.3856  -5.1725  -5.0452  -4.4085  -4.3658  -4.0751  -3.7557
    -1.3676   0.0802   0.8477   1.0483   1.0901   1.1735   1.2595   1.3121
     1.4510   1.6167   1.6884   1.8004   1.8549   1.9175   1.9364   1.9848
     2.0191   2.0917   2.1863   2.2258   2.2774   2.3289

          k =-0.3333-0.3849 0.0000 ( 59291 PWs)   bands (ev):

   -68.6773 -68.6729 -40.3324 -40.2794 -40.1009 -40.0960 -40.0516 -40.0467
   -21.1128 -20.9152 -20.7184 -20.1572 -19.8045 -19.4649 -19.3158 -19.1715
   -19.0161 -18.7763 -18.6306 -18.5478 -18.1371 -18.1009 -17.9178 -17.7218
   -12.3473 -12.1114 -12.0447 -11.9088 -11.6814 -11.6562 -11.5534 -10.9416
   -10.8871 -10.6206 -10.5257  -9.8579  -9.6936  -9.3358  -9.1108  -8.6419
    -8.6217  -8.5521  -8.3901  -8.3715  -8.1607  -8.0994  -8.0626  -8.0521
    -7.6847  -7.6221  -7.4990  -7.4696  -7.3355  -7.1714  -7.0686  -6.8523
    -6.6196  -6.3765  -6.1649  -6.1586  -5.9571  -5.9267  -5.7826  -5.7408
    -5.4519  -5.3818  -5.1733  -5.0453  -4.4108  -4.3634  -4.0748  -3.7559
    -1.3771   0.1491   0.8329   1.0440   1.0829   1.1993   1.2326   1.3265
     1.4413   1.5481   1.6871   1.7725   1.8116   1.9066   1.9482   1.9872
     2.0489   2.0783   2.1343   2.2035   2.2855   2.3204

          k = 0.5000 0.0962 0.0000 ( 59291 PWs)   bands (ev):

   -68.6773 -68.6729 -40.3324 -40.2794 -40.1009 -40.0959 -40.0516 -40.0467
   -21.1120 -20.9175 -20.7168 -20.1573 -19.8027 -19.4666 -19.3203 -19.1684
   -19.0135 -18.7779 -18.6294 -18.5485 -18.1349 -18.1035 -17.9177 -17.7216
   -12.3467 -12.1133 -12.0425 -11.9099 -11.6917 -11.6446 -11.5544 -10.9417
   -10.8874 -10.6212 -10.5250  -9.8573  -9.6935  -9.3362  -9.1100  -8.6396
    -8.6227  -8.5504  -8.3931  -8.3793  -8.1593  -8.0940  -8.0746  -8.0390
    -7.6845  -7.6235  -7.4929  -7.4752  -7.3363  -7.1714  -7.0681  -6.8467
    -6.6213  -6.3817  -6.1764  -6.1568  -5.9484  -5.9276  -5.7825  -5.7342
    -5.4521  -5.3856  -5.1725  -5.0451  -4.4085  -4.3657  -4.0751  -3.7557
    -1.3676   0.0802   0.8478   1.0483   1.0901   1.1735   1.2595   1.3121
     1.4510   1.6167   1.6884   1.8005   1.8549   1.9175   1.9364   1.9849
     2.0191   2.0918   2.1863   2.2258   2.2773   2.3288

          k =-0.3333 0.3849 0.0000 ( 59291 PWs)   bands (ev):

   -68.6773 -68.6729 -40.3324 -40.2794 -40.1009 -40.0960 -40.0516 -40.0467
   -21.1128 -20.9152 -20.7184 -20.1571 -19.8045 -19.4649 -19.3158 -19.1715
   -19.0161 -18.7763 -18.6306 -18.5478 -18.1371 -18.1009 -17.9178 -17.7218
   -12.3472 -12.1114 -12.0447 -11.9088 -11.6815 -11.6563 -11.5534 -10.9417
   -10.8871 -10.6206 -10.5257  -9.8579  -9.6935  -9.3358  -9.1108  -8.6419
    -8.6217  -8.5521  -8.3902  -8.3715  -8.1608  -8.0995  -8.0625  -8.0521
    -7.6847  -7.6221  -7.4990  -7.4695  -7.3355  -7.1713  -7.0687  -6.8523
    -6.6196  -6.3765  -6.1649  -6.1586  -5.9570  -5.9268  -5.7825  -5.7408
    -5.4518  -5.3817  -5.1734  -5.0453  -4.4108  -4.3634  -4.0748  -3.7559
    -1.3771   0.1491   0.8329   1.0440   1.0829   1.1993   1.2326   1.3265
     1.4413   1.5481   1.6872   1.7724   1.8115   1.9066   1.9481   1.9872
     2.0489   2.0786   2.1340   2.2031   2.2855   2.3210

          k =-0.1667-0.0962 0.0000 ( 59226 PWs)   bands (ev):

   -68.6773 -68.6729 -40.3324 -40.2794 -40.1009 -40.0959 -40.0516 -40.0467
   -21.3116 -20.5335 -20.3452 -20.3363 -19.9872 -19.9781 -19.8045 -18.7280
   -18.7191 -18.3732 -18.3658 -18.3532 -18.2677 -18.2591 -18.0768 -18.0690
   -12.5077 -12.5011 -12.4077 -11.5814 -11.5755 -11.4268 -11.4193 -10.9258
   -10.9230  -9.9292  -9.9254  -9.6749  -9.3744  -9.3718  -9.2294  -9.2272
    -9.0419  -9.0399  -8.9073  -8.3232  -8.3201  -7.9010  -7.8988  -7.8617
    -7.8432  -7.7702  -7.5963  -7.5725  -7.1140  -7.0819  -6.9588  -6.8879
    -6.8849  -6.8427  -6.5313  -6.5273  -6.2572  -5.3315  -5.3052  -5.1425
    -5.0648  -4.7928  -4.7857  -4.7390  -4.6040  -4.5962  -4.3415  -4.3224
    -1.4154   0.3534   0.8483   1.0295   1.1404   1.2094   1.2221   1.3554
     1.4767   1.5342   1.5821   1.7007   1.7852   1.8618   1.8966   1.9357
     1.9842   2.0580   2.0844   2.1295   2.2236   2.2731

          k =-0.0000-0.1925 0.0000 ( 59226 PWs)   bands (ev):

   -68.6773 -68.6729 -40.3323 -40.2794 -40.1009 -40.0959 -40.0516 -40.0467
   -21.3117 -20.5291 -20.3517 -20.3376 -19.9856 -19.9731 -19.8077 -18.7283
   -18.7157 -18.3892 -18.3701 -18.3503 -18.2546 -18.2537 -18.0811 -18.0691
   -12.5090 -12.5000 -12.4075 -11.5838 -11.5746 -11.4259 -11.4174 -10.9274
   -10.9231  -9.9285  -9.9260  -9.6753  -9.3747  -9.3705  -9.2293  -9.2279
    -9.0419  -9.0402  -8.9078  -8.3229  -8.3196  -7.9003  -7.8986  -7.8517
    -7.8390  -7.7717  -7.6139  -7.5795  -7.1008  -7.0754  -6.9575  -6.8899
    -6.8844  -6.8516  -6.5321  -6.5260  -6.2577  -5.3280  -5.3025  -5.1428
    -5.0645  -4.8134  -4.7917  -4.7399  -4.5893  -4.5830  -4.3456  -4.3248
    -1.4236   0.4915   0.7994   1.0191   1.1499   1.1640   1.2430   1.3380
     1.4473   1.4676   1.5254   1.6390   1.7336   1.8497   1.9174   1.9608
     2.0381   2.0704   2.1316   2.1486   2.1879   2.2827

          k = 0.5000-0.8660 0.0000 ( 59292 PWs)   bands (ev):

   -68.6773 -68.6729 -40.3324 -40.2794 -40.1009 -40.0960 -40.0516 -40.0467
   -21.0485 -21.0442 -20.4694 -20.4609 -19.4259 -19.4165 -19.4133 -19.4065
   -18.9910 -18.9869 -18.3211 -18.3204 -18.3181 -18.3086 -17.7931 -17.7853
   -12.0687 -12.0668 -12.0647 -12.0585 -11.8790 -11.8720 -11.3289 -11.3266
   -10.2352 -10.2304 -10.1351 -10.1318 -10.1292 -10.1249  -8.5622  -8.5471
    -8.5465  -8.5448  -8.5431  -8.5350  -7.8642  -7.8627  -7.8585  -7.8570
    -7.8236  -7.8177  -7.7675  -7.7434  -7.4909  -7.4852  -6.6118  -6.6061
    -6.3354  -6.3125  -6.2990  -6.2851  -6.1899  -6.1860  -5.6955  -5.6898
    -5.5459  -5.5407  -4.7079  -4.6973  -4.6920  -4.6893  -3.8761  -3.8573
    -1.3675   0.0786   0.8465   1.0604   1.1296   1.2157   1.3208   1.4357
     1.5097   1.5461   1.5975   1.7179   1.7552   1.8773   1.9033   1.9450
     1.9682   2.0601   2.1372   2.1945   2.2884   2.3189

          k =-1.0000 0.0000 0.0000 ( 59292 PWs)   bands (ev):

   -68.6773 -68.6729 -40.3324 -40.2794 -40.1009 -40.0959 -40.0517 -40.0466
   -21.0710 -21.0193 -20.4742 -20.4603 -19.4223 -19.4189 -19.4176 -19.3982
   -19.0090 -18.9702 -18.3653 -18.3310 -18.2917 -18.2810 -17.7957 -17.7840
   -12.1003 -12.0799 -12.0395 -12.0354 -11.8817 -11.8700 -11.3487 -11.3088
   -10.2409 -10.2381 -10.1315 -10.1308 -10.1235 -10.1231  -8.6037  -8.5723
    -8.5567  -8.5280  -8.5178  -8.4887  -7.8741  -7.8680  -7.8593  -7.8589
    -7.8133  -7.8129  -7.7760  -7.7462  -7.5119  -7.4660  -6.6119  -6.6037
    -6.3353  -6.3110  -6.3000  -6.2716  -6.2063  -6.1721  -5.7211  -5.6688
    -5.5643  -5.5224  -4.7661  -4.7326  -4.6475  -4.6430  -3.8769  -3.8581
    -1.4040   0.4520   0.8687   0.9790   1.0336   1.1408   1.2478   1.3164
     1.4160   1.4873   1.5833   1.6409   1.6637   1.8138   1.8887   1.8988
     2.0898   2.1252   2.1366   2.1578   2.2862   2.3224

     the Fermi energy is    -1.1969 ev

!    total energy              =   -1133.82350846 Ry

     total all-electron energy =     -6753.499211 Ry
     estimated scf accuracy    <       0.00000003 Ry
     smearing contrib. (-TS)   =      -0.00000000 Ry
     internal energy E=F+TS    =   -1133.82350846 Ry

     The total energy is F=E-TS. E is the sum of the following terms:
     one-electron contribution =   -3945.91684202 Ry
     hartree contribution      =    2001.13925133 Ry
     xc contribution           =    -186.00989226 Ry
     ewald contribution        =    1356.34018178 Ry
     DFT-D3 Dispersion         =      -0.13572276 Ry
     one-center paw contrib.   =    -359.24048452 Ry

     total magnetization       =    10.00 Bohr mag/cell
     absolute magnetization    =    10.01 Bohr mag/cell

     convergence has been achieved in  15 iterations

     Writing output data file ./mytmp/Crdimer0.15-0.5.save/
 
     init_run     :     18.39s CPU     19.55s WALL (       1 calls)
     electrons    :    518.78s CPU    562.36s WALL (       1 calls)

     Called by init_run:
     wfcinit      :     13.48s CPU     14.07s WALL (       1 calls)
     potinit      :      1.45s CPU      1.56s WALL (       1 calls)
     hinit0       :      1.52s CPU      1.60s WALL (       1 calls)

     Called by electrons:
     c_bands      :    407.47s CPU    433.07s WALL (      15 calls)
     sum_band     :     82.75s CPU     93.38s WALL (      15 calls)
     v_of_rho     :      5.12s CPU      5.48s WALL (      16 calls)
     newd         :     15.59s CPU     22.19s WALL (      16 calls)
     PAW_pot      :      7.23s CPU      7.92s WALL (      16 calls)
     mix_rho      :      1.07s CPU      1.09s WALL (      15 calls)

     Called by c_bands:
     init_us_2    :      5.36s CPU      5.39s WALL (     930 calls)
     cegterg      :    394.24s CPU    419.77s WALL (     450 calls)

     Called by *egterg:
     cdiaghg      :     27.31s CPU     42.84s WALL (    3115 calls)
     h_psi        :    251.61s CPU    260.28s WALL (    3145 calls)
     s_psi        :     28.79s CPU     28.85s WALL (    3145 calls)
     g_psi        :      0.70s CPU      0.73s WALL (    2665 calls)

     Called by h_psi:
     h_psi:calbec :     29.65s CPU     30.42s WALL (    3145 calls)
     vloc_psi     :    190.55s CPU    198.32s WALL (    3145 calls)
     add_vuspsi   :     29.26s CPU     29.37s WALL (    3145 calls)

     General routines
     calbec       :     39.70s CPU     40.69s WALL (    3595 calls)
     fft          :      8.10s CPU     12.20s WALL (     394 calls)
     ffts         :      0.12s CPU      0.13s WALL (      62 calls)
     fftw         :    197.55s CPU    205.63s WALL (  259200 calls)
     interpolate  :      0.45s CPU      0.48s WALL (      32 calls)
 
     Parallel routines
     fft_scatt_xy :     32.13s CPU     33.23s WALL (  259656 calls)
     fft_scatt_yz :     81.18s CPU     88.92s WALL (  259656 calls)
 
     PWSCF        :   8m59.22s CPU   9m46.43s WALL

 
   This run was terminated on:  15:57:50  31Mar2021            

=------------------------------------------------------------------------------=
   JOB DONE.
=------------------------------------------------------------------------------=
