
     Program PWSCF v.6.7MaX starts on 31Mar2021 at 15:27:12 

     This program is part of the open-source Quantum ESPRESSO suite
     for quantum simulation of materials; please cite
         "P. Giannozzi et al., J. Phys.:Condens. Matter 21 395502 (2009);
         "P. Giannozzi et al., J. Phys.:Condens. Matter 29 465901 (2017);
          URL http://www.quantum-espresso.org", 
     in publications or presentations arising from this work. More details at
     http://www.quantum-espresso.org/quote

     Parallel version (MPI), running on    48 processors

     MPI processes distributed on     1 nodes
     R & G space division:  proc/nbgrp/npool/nimage =      48
     Reading input from Crdimer0.15-0.3.scf.in

     Current dimensions of program PWSCF are:
     Max number of different atomic species (ntypx) = 10
     Max number of k-points (npk) =  40000
     Max angular momentum in pseudopotentials (lmaxx) =  3
     file N.pbe-n-kjpaw_psl.1.0.0.UPF: wavefunction(s)  2S renormalized
     file Cr.pbe-spn-kjpaw_psl.1.0.0.UPF: wavefunction(s)  3S 3P 3D renormalized
     file Cr.pbe-spn-kjpaw_psl.1.0.0.UPF: wavefunction(s)  3S 3P 3D renormalized

     --------------------------------------------
     Parameters for DFT-D3 Dispersion Correction:
     --------------------------------------------
       Reference C6 values for interpolation: 

         atom   Coordination number   C6
         B          0.000           214.36
         B          0.971           150.74
         B          1.944           106.23
         B          2.913            62.89
         B          4.586            56.06
         N          0.000            50.54
         N          0.994            44.25
         N          2.014            39.35
         N          2.990            31.16
         Cr1        0.000          1381.48
         Cr1        1.827           571.38
         Cr1       10.619           306.69
         Cr2        0.000          1381.48
         Cr2        1.827           571.38
         Cr2       10.619           306.69

       Values used:

         atom   Coordination number  R0_AB[au]  C6      C8
         B          3.339            3.039     62.89   2505.92
         B          3.335            3.039     62.89   2506.00
         B          3.337            3.039     62.89   2505.96
         B          3.335            3.039     62.89   2506.01
         B          3.378            3.039     62.86   2504.79
         B          3.335            3.039     62.89   2506.01
         N          3.135            2.478     31.22    688.69
         N          3.136            2.478     31.22    688.68
         N          3.139            2.478     31.22    688.65
         N          3.135            2.478     31.22    688.69
         N          3.152            2.478     31.21    688.54
         N          3.134            2.478     31.22    688.69
         N          3.151            2.478     31.21    688.55
         N          3.134            2.478     31.22    688.70
         N          3.134            2.478     31.22    688.70
         B          3.341            3.039     62.89   2505.86
         B          3.335            3.039     62.89   2506.00
         B          3.335            3.039     62.89   2506.01
         B          3.378            3.039     62.86   2504.79
         B          3.339            3.039     62.89   2505.92
         B          3.341            3.039     62.89   2505.86
         N          3.151            2.478     31.21    688.55
         B          3.336            3.039     62.89   2506.00
         B          3.342            3.039     62.89   2505.83
         B          3.337            3.039     62.89   2505.97
         N          3.134            2.478     31.22    688.69
         N          3.136            2.478     31.22    688.68
         N          3.134            2.478     31.22    688.70
         N          3.134            2.478     31.22    688.70
         N          3.139            2.478     31.22    688.65
         N          3.135            2.478     31.22    688.69
         B          3.337            3.039     62.89   2505.97
         Cr1        0.507            3.252   1378.73 127241.51
         Cr2        0.507            3.252   1378.73 127241.51

         Molecular C6 ( Ry / a.u.^6 ) =     79133.04


     Subspace diagonalization in iterative solution of the eigenvalue problem:
     one sub-group per band group will be used
     scalapack distributed-memory algorithm (size of sub-group:  6*  6 procs)

 
     Parallelization info
     --------------------
     sticks:   dense  smooth     PW     G-vecs:    dense   smooth      PW
     Min         235      98     26                36277     9874    1408
     Max         236      99     27                36282     9883    1425
     Sum       11311    4741   1285              1741401   474235   68095
 


     bravais-lattice index     =            4
     lattice parameter (alat)  =      18.9275  a.u.
     unit-cell volume          =   10553.3021 (a.u.)^3
     number of atoms/cell      =           34
     number of atomic types    =            4
     number of electrons       =       156.00
     number of Kohn-Sham states=           94
     kinetic-energy cutoff     =      48.0000  Ry
     charge density cutoff     =     457.0000  Ry
     scf convergence threshold =      1.0E-07
     mixing beta               =       0.5000
     number of iterations used =            8  plain     mixing
     Exchange-correlation= SLA  PW   PBX  PBC
                           (   1   4   3   4   0   0   0)

     celldm(1)=  18.927497  celldm(2)=   0.000000  celldm(3)=   1.797125
     celldm(4)=   0.000000  celldm(5)=   0.000000  celldm(6)=   0.000000

     crystal axes: (cart. coord. in units of alat)
               a(1) = (   1.000000   0.000000   0.000000 )  
               a(2) = (  -0.500000   0.866025   0.000000 )  
               a(3) = (   0.000000   0.000000   1.797125 )  

     reciprocal axes: (cart. coord. in units 2 pi/alat)
               b(1) = (  1.000000  0.577350  0.000000 )  
               b(2) = (  0.000000  1.154701  0.000000 )  
               b(3) = (  0.000000  0.000000  0.556444 )  


     PseudoPot. # 1 for B  read from file:
     /home/sf05/q-e-qe-6.7MaX-Release/pseudo/B.pbe-n-kjpaw_psl.1.0.0.UPF
     MD5 check sum: d9c678ba5d3b2fd7b74e61139c9288d8
     Pseudo is Projector augmented-wave + core cor, Zval =  3.0
     Generated using "atomic" code by A. Dal Corso  v.5.1.2
     Shape of augmentation charge: PSQ
     Using radial grid of 1059 points,  4 beta functions with: 
                l(1) =   0
                l(2) =   0
                l(3) =   1
                l(4) =   1
     Q(r) pseudized with 0 coefficients 


     PseudoPot. # 2 for N  read from file:
     /home/sf05/q-e-qe-6.7MaX-Release/pseudo/N.pbe-n-kjpaw_psl.1.0.0.UPF
     MD5 check sum: e0e4e94a9c4025c5b51bd7d8793849bd
     Pseudo is Projector augmented-wave + core cor, Zval =  5.0
     Generated using "atomic" code by A. Dal Corso  v.5.1.2
     Shape of augmentation charge: PSQ
     Using radial grid of 1085 points,  4 beta functions with: 
                l(1) =   0
                l(2) =   0
                l(3) =   1
                l(4) =   1
     Q(r) pseudized with 0 coefficients 


     PseudoPot. # 3 for Cr read from file:
     /home/sf05/q-e-qe-6.7MaX-Release/pseudo/Cr.pbe-spn-kjpaw_psl.1.0.0.UPF
     MD5 check sum: 198f1a2427a48552563eee314eba32ba
     Pseudo is Projector augmented-wave + core cor, Zval = 14.0
     Generated using &quot;atomic&quot; code by A. Dal Corso  v.6.3
     Shape of augmentation charge: PSQ
     Using radial grid of 1183 points,  6 beta functions with: 
                l(1) =   0
                l(2) =   0
                l(3) =   1
                l(4) =   1
                l(5) =   2
                l(6) =   2
     Q(r) pseudized with 0 coefficients 


     PseudoPot. # 4 for Cr read from file:
     /home/sf05/q-e-qe-6.7MaX-Release/pseudo/Cr.pbe-spn-kjpaw_psl.1.0.0.UPF
     MD5 check sum: 198f1a2427a48552563eee314eba32ba
     Pseudo is Projector augmented-wave + core cor, Zval = 14.0
     Generated using &quot;atomic&quot; code by A. Dal Corso  v.6.3
     Shape of augmentation charge: PSQ
     Using radial grid of 1183 points,  6 beta functions with: 
                l(1) =   0
                l(2) =   0
                l(3) =   1
                l(4) =   1
                l(5) =   2
                l(6) =   2
     Q(r) pseudized with 0 coefficients 


     atomic species   valence    mass     pseudopotential
        B              3.00    10.81100     B ( 1.00)
        N              5.00    14.00674     N ( 1.00)
        Cr1           14.00    51.99610     Cr( 1.00)
        Cr2           14.00    51.99610     Cr( 1.00)

     Starting magnetic structure 
     atomic species   magnetization
        B            0.000
        N            0.000
        Cr1          1.000
        Cr2          1.000

     No symmetry found



   Cartesian axes

     site n.     atom                  positions (alat units)
         1           B   tau(   1) = (  -0.1250000   0.2165064   0.8985623  )
         2           B   tau(   2) = (   0.3750000   0.6495191   0.8985623  )
         3           B   tau(   3) = (   0.2500000   0.0000000   0.8985623  )
         4           B   tau(   4) = (   0.7500000   0.0000000   0.8985623  )
         5           B   tau(   5) = (   0.1250000   0.2165064   0.8985623  )
         6           B   tau(   6) = (  -0.3750000   0.6495191   0.8985623  )
         7           N   tau(   7) = (   0.7500005   0.2886748   0.8985623  )
         8           N   tau(   8) = (   0.3750005   0.5051812   0.8985623  )
         9           N   tau(   9) = (   0.3750005   0.0721685   0.8985623  )
        10           N   tau(  10) = (   0.6250005   0.0721685   0.8985623  )
        11           N   tau(  11) = (   0.2500005   0.2886748   0.8985623  )
        12           N   tau(  12) = (   0.6250005   0.5051812   0.8985623  )
        13           N   tau(  13) = (   0.0000005   0.2886748   0.8985623  )
        14           N   tau(  14) = (   0.2500005   0.7216875   0.8985623  )
        15           N   tau(  15) = (  -0.2499995   0.7216875   0.8985623  )
        16           B   tau(  16) = (   0.0000000   0.4330127   0.8985623  )
        17           B   tau(  17) = (   0.1250000   0.6495191   0.8985623  )
        18           B   tau(  18) = (  -0.1250000   0.6495191   0.8985623  )
        19           B   tau(  19) = (   0.3750000   0.2165064   0.8985623  )
        20           B   tau(  20) = (   0.6250000   0.2165064   0.8985623  )
        21           B   tau(  21) = (   0.5000000   0.4330127   0.8985623  )
        22           N   tau(  22) = (   0.5000005   0.2886748   0.8985623  )
        23           B   tau(  23) = (  -0.2500000   0.4330127   0.8985623  )
        24           B   tau(  24) = (   0.2500000   0.4330127   0.8985623  )
        25           B   tau(  25) = (   0.5000000   0.0000000   0.8985623  )
        26           N   tau(  26) = (  -0.1249995   0.5051812   0.8985623  )
        27           N   tau(  27) = (   0.1250005   0.5051812   0.8985623  )
        28           N   tau(  28) = (   0.0000005   0.7216875   0.8985623  )
        29           N   tau(  29) = (   0.5000005   0.7216875   0.8985623  )
        30           N   tau(  30) = (   0.1250005   0.0721685   0.8985623  )
        31           N   tau(  31) = (   0.8750005   0.0721685   0.8985623  )
        32           B   tau(  32) = (   0.0000000   0.0000000   0.8985623  )
        33           Cr1 tau(  33) = (   0.4000000   0.2598076   1.2040735  )
        34           Cr2 tau(  34) = (   0.1000000   0.2598076   1.2040735  )

     number of k points=    15  Gaussian smearing, width (Ry)=  0.0000
                       cart. coord. in units 2pi/alat
        k(    1) = (   0.1666667   0.2886751   0.0000000), wk =   0.0740741
        k(    2) = (   0.1666667  -0.4811252   0.0000000), wk =   0.0740741
        k(    3) = (   0.1666667  -0.0962250   0.0000000), wk =   0.0740741
        k(    4) = (  -0.5000000  -0.8660254   0.0000000), wk =   0.0370370
        k(    5) = (  -0.1666667   0.2886751   0.0000000), wk =   0.0740741
        k(    6) = (   0.3333333   0.0000000   0.0000000), wk =   0.0740741
        k(    7) = (  -0.1666667  -0.4811252   0.0000000), wk =   0.0740741
        k(    8) = (   0.5000000  -0.0962250   0.0000000), wk =   0.0740741
        k(    9) = (  -0.3333333  -0.3849002   0.0000000), wk =   0.0740741
        k(   10) = (   0.5000000   0.0962250   0.0000000), wk =   0.0740741
        k(   11) = (  -0.3333333   0.3849002   0.0000000), wk =   0.0740741
        k(   12) = (  -0.1666667  -0.0962250   0.0000000), wk =   0.0740741
        k(   13) = (  -0.0000000  -0.1924501   0.0000000), wk =   0.0740741
        k(   14) = (   0.5000000  -0.8660254   0.0000000), wk =   0.0370370
        k(   15) = (  -1.0000000   0.0000000   0.0000000), wk =   0.0370370

     Dense  grid:  1741401 G-vectors     FFT dimensions: ( 135, 135, 240)

     Smooth grid:   474235 G-vectors     FFT dimensions: (  90,  90, 160)

     Estimated max dynamical RAM per process >     218.62 MB

     Estimated total dynamical RAM >      10.25 GB
     Generating pointlists ...
     new r_m :   0.0595 (alat units)  1.1269 (a.u.) for type    1
     new r_m :   0.0595 (alat units)  1.1269 (a.u.) for type    2
     new r_m :   0.1238 (alat units)  2.3423 (a.u.) for type    3
     new r_m :   0.1238 (alat units)  2.3423 (a.u.) for type    4

     Initial potential from superposition of free atoms

     starting charge  155.99382, renormalised to  156.00000

     negative rho (up, down):  6.685E-03 4.655E-04
     Starting wfcs are  148 randomized atomic wfcs
     Checking if some PAW data can be deallocated... 

     total cpu time spent up to now is       20.6 secs

     Self-consistent Calculation

     iteration #  1     ecut=    48.00 Ry     beta= 0.50
     Davidson diagonalization with overlap
     ethr =  1.00E-02,  avg # of iterations =  2.8

     negative rho (up, down):  4.867E-03 2.919E-03

     total cpu time spent up to now is       64.7 secs

     total energy              =   -1130.73749902 Ry
     estimated scf accuracy    <      11.38489240 Ry

     total magnetization       =    12.00 Bohr mag/cell
     absolute magnetization    =    12.13 Bohr mag/cell

     iteration #  2     ecut=    48.00 Ry     beta= 0.50
     Davidson diagonalization with overlap
     ethr =  7.30E-03,  avg # of iterations =  2.8

     negative rho (up, down):  8.681E-03 7.926E-03

     total cpu time spent up to now is      105.8 secs

     total energy              =   -1132.91885643 Ry
     estimated scf accuracy    <       3.79702893 Ry

     total magnetization       =    10.00 Bohr mag/cell
     absolute magnetization    =    10.10 Bohr mag/cell

     iteration #  3     ecut=    48.00 Ry     beta= 0.50
     Davidson diagonalization with overlap
     ethr =  2.43E-03,  avg # of iterations =  7.1

     negative rho (up, down):  4.066E-03 4.091E-03

     total cpu time spent up to now is      147.7 secs

     total energy              =   -1133.56481076 Ry
     estimated scf accuracy    <       0.85100669 Ry

     total magnetization       =    12.00 Bohr mag/cell
     absolute magnetization    =    12.06 Bohr mag/cell

     iteration #  4     ecut=    48.00 Ry     beta= 0.50
     Davidson diagonalization with overlap
     ethr =  5.46E-04,  avg # of iterations =  5.8

     negative rho (up, down):  6.477E-03 7.160E-03

     total cpu time spent up to now is      187.0 secs

     total energy              =   -1133.77806379 Ry
     estimated scf accuracy    <       0.45846733 Ry

     total magnetization       =    10.00 Bohr mag/cell
     absolute magnetization    =    10.02 Bohr mag/cell

     iteration #  5     ecut=    48.00 Ry     beta= 0.50
     Davidson diagonalization with overlap
     ethr =  2.94E-04,  avg # of iterations =  7.0

     negative rho (up, down):  4.491E-03 4.970E-03

     total cpu time spent up to now is      229.4 secs

     total energy              =   -1133.80812112 Ry
     estimated scf accuracy    <       0.02616717 Ry

     total magnetization       =    10.74 Bohr mag/cell
     absolute magnetization    =    10.75 Bohr mag/cell

     iteration #  6     ecut=    48.00 Ry     beta= 0.50
     Davidson diagonalization with overlap
     c_bands:  1 eigenvalues not converged
     ethr =  1.68E-05,  avg # of iterations = 12.5

     negative rho (up, down):  3.873E-03 3.917E-03

     total cpu time spent up to now is      283.6 secs

     total energy              =   -1133.81509508 Ry
     estimated scf accuracy    <       0.02914540 Ry

     total magnetization       =    10.00 Bohr mag/cell
     absolute magnetization    =    10.03 Bohr mag/cell

     iteration #  7     ecut=    48.00 Ry     beta= 0.50
     Davidson diagonalization with overlap
     ethr =  1.68E-05,  avg # of iterations =  6.4

     negative rho (up, down):  3.506E-03 3.757E-03

     total cpu time spent up to now is      323.8 secs

     total energy              =   -1133.82014010 Ry
     estimated scf accuracy    <       0.00675947 Ry

     total magnetization       =    10.00 Bohr mag/cell
     absolute magnetization    =    10.02 Bohr mag/cell

     iteration #  8     ecut=    48.00 Ry     beta= 0.50
     Davidson diagonalization with overlap
     ethr =  4.33E-06,  avg # of iterations =  6.1

     negative rho (up, down):  3.214E-03 3.688E-03

     total cpu time spent up to now is      363.0 secs

     total energy              =   -1133.82221064 Ry
     estimated scf accuracy    <       0.00160972 Ry

     total magnetization       =    10.00 Bohr mag/cell
     absolute magnetization    =    10.02 Bohr mag/cell

     iteration #  9     ecut=    48.00 Ry     beta= 0.50
     Davidson diagonalization with overlap
     ethr =  1.03E-06,  avg # of iterations =  7.3

     negative rho (up, down):  3.136E-03 3.676E-03

     total cpu time spent up to now is      403.2 secs

     total energy              =   -1133.82295347 Ry
     estimated scf accuracy    <       0.00027499 Ry

     total magnetization       =    10.00 Bohr mag/cell
     absolute magnetization    =    10.02 Bohr mag/cell

     iteration # 10     ecut=    48.00 Ry     beta= 0.50
     Davidson diagonalization with overlap
     ethr =  1.76E-07,  avg # of iterations =  4.4

     negative rho (up, down):  3.138E-03 3.686E-03

     total cpu time spent up to now is      441.7 secs

     total energy              =   -1133.82316569 Ry
     estimated scf accuracy    <       0.00006620 Ry

     total magnetization       =    10.00 Bohr mag/cell
     absolute magnetization    =    10.01 Bohr mag/cell

     iteration # 11     ecut=    48.00 Ry     beta= 0.50
     Davidson diagonalization with overlap
     ethr =  4.24E-08,  avg # of iterations =  5.0

     negative rho (up, down):  3.135E-03 3.704E-03

     total cpu time spent up to now is      479.1 secs

     total energy              =   -1133.82321760 Ry
     estimated scf accuracy    <       0.00000836 Ry

     total magnetization       =    10.00 Bohr mag/cell
     absolute magnetization    =    10.01 Bohr mag/cell

     iteration # 12     ecut=    48.00 Ry     beta= 0.50
     Davidson diagonalization with overlap
     ethr =  5.36E-09,  avg # of iterations =  4.9

     negative rho (up, down):  3.124E-03 3.717E-03

     total cpu time spent up to now is      519.4 secs

     total energy              =   -1133.82323238 Ry
     estimated scf accuracy    <       0.00000233 Ry

     total magnetization       =    10.00 Bohr mag/cell
     absolute magnetization    =    10.01 Bohr mag/cell

     iteration # 13     ecut=    48.00 Ry     beta= 0.50
     Davidson diagonalization with overlap
     ethr =  1.49E-09,  avg # of iterations =  4.8

     negative rho (up, down):  3.117E-03 3.728E-03

     total cpu time spent up to now is      556.6 secs

     total energy              =   -1133.82323674 Ry
     estimated scf accuracy    <       0.00000061 Ry

     total magnetization       =    10.00 Bohr mag/cell
     absolute magnetization    =    10.01 Bohr mag/cell

     iteration # 14     ecut=    48.00 Ry     beta= 0.50
     Davidson diagonalization with overlap
     ethr =  3.89E-10,  avg # of iterations =  4.9

     negative rho (up, down):  3.115E-03 3.731E-03

     total cpu time spent up to now is      595.9 secs

     total energy              =   -1133.82323811 Ry
     estimated scf accuracy    <       0.00000019 Ry

     total magnetization       =    10.00 Bohr mag/cell
     absolute magnetization    =    10.01 Bohr mag/cell

     iteration # 15     ecut=    48.00 Ry     beta= 0.50
     Davidson diagonalization with overlap
     ethr =  1.23E-10,  avg # of iterations =  4.5

     negative rho (up, down):  3.114E-03 3.731E-03
 
     Magnetic moment per site:
     atom:    1    charge:    0.8810    magn:    0.0007    constr:    0.0000
     atom:    2    charge:    0.8802    magn:    0.0002    constr:    0.0000
     atom:    3    charge:    0.8798    magn:    0.0004    constr:    0.0000
     atom:    4    charge:    0.8805    magn:    0.0001    constr:    0.0000
     atom:    5    charge:    0.8806    magn:    0.0004    constr:    0.0000
     atom:    6    charge:    0.8803    magn:    0.0001    constr:    0.0000
     atom:    7    charge:    2.8611    magn:    0.0002    constr:    0.0000
     atom:    8    charge:    2.8607    magn:    0.0017    constr:    0.0000
     atom:    9    charge:    2.8605    magn:    0.0044    constr:    0.0000
     atom:   10    charge:    2.8609    magn:    0.0008    constr:    0.0000
     atom:   11    charge:    2.8604    magn:    0.0071    constr:    0.0000
     atom:   12    charge:    2.8610    magn:    0.0004    constr:    0.0000
     atom:   13    charge:    2.8596    magn:    0.0051    constr:    0.0000
     atom:   14    charge:    2.8599    magn:    0.0002    constr:    0.0000
     atom:   15    charge:    2.8599    magn:    0.0000    constr:    0.0000
     atom:   16    charge:    0.8802    magn:    0.0004    constr:    0.0000
     atom:   17    charge:    0.8799    magn:    0.0002    constr:    0.0000
     atom:   18    charge:    0.8800    magn:    0.0001    constr:    0.0000
     atom:   19    charge:    0.8800    magn:    0.0004    constr:    0.0000
     atom:   20    charge:    0.8804    magn:    0.0007    constr:    0.0000
     atom:   21    charge:    0.8799    magn:    0.0004    constr:    0.0000
     atom:   22    charge:    2.8609    magn:    0.0051    constr:    0.0000
     atom:   23    charge:    0.8803    magn:    0.0002    constr:    0.0000
     atom:   24    charge:    0.8792    magn:    0.0003    constr:    0.0000
     atom:   25    charge:    0.8800    magn:    0.0002    constr:    0.0000
     atom:   26    charge:    2.8599    magn:    0.0004    constr:    0.0000
     atom:   27    charge:    2.8596    magn:    0.0017    constr:    0.0000
     atom:   28    charge:    2.8598    magn:    0.0002    constr:    0.0000
     atom:   29    charge:    2.8596    magn:    0.0002    constr:    0.0000
     atom:   30    charge:    2.8592    magn:    0.0044    constr:    0.0000
     atom:   31    charge:    2.8596    magn:    0.0008    constr:    0.0000
     atom:   32    charge:    0.8802    magn:    0.0002    constr:    0.0000
     atom:   33    charge:   12.6786    magn:    4.3523    constr:    0.0000
     atom:   34    charge:   12.6786    magn:    4.3523    constr:    0.0000

     total cpu time spent up to now is      633.5 secs

     End of self-consistent calculation

 ------ SPIN UP ------------


          k = 0.1667 0.2887 0.0000 ( 59267 PWs)   bands (ev):

   -72.8892 -72.8855 -44.4137 -44.3707 -44.2984 -44.2944 -44.2684 -44.2640
   -21.2534 -20.6700 -20.6590 -20.1176 -20.0954 -19.5970 -19.5852 -19.1054
   -18.7067 -18.6949 -18.4697 -18.4497 -18.2005 -18.0921 -18.0814 -17.8548
   -12.4911 -12.2171 -12.2033 -11.8285 -11.8221 -11.6640 -11.2001 -11.1932
   -10.3981 -10.3741 -10.1251 -10.1191  -9.5959  -9.5934  -8.8489  -8.8315
    -8.8252  -8.7756  -8.7638  -8.6021  -8.2028  -8.0546  -8.0272  -7.8374
    -7.8309  -7.4446  -7.4426  -7.2983  -7.2559  -7.2157  -7.2106  -6.9721
    -6.9548  -6.5674  -6.5496  -6.1601  -6.1580  -5.8775  -5.4241  -5.3014
    -5.2819  -5.2059  -4.9296  -4.8956  -4.5116  -4.3636  -4.3445  -3.9848
    -2.7264  -1.9501  -1.8737  -1.7819  -1.6473  -1.5883  -1.5279  -1.5140
    -1.4892  -1.4406  -1.3755  -0.8151   0.6777   0.9375   1.0749   1.1370
     1.2708   1.4544   1.4848   1.5820   1.5997   1.7706

          k = 0.1667-0.4811 0.0000 ( 59291 PWs)   bands (ev):

   -72.8892 -72.8855 -44.4137 -44.3707 -44.2984 -44.2944 -44.2684 -44.2640
   -21.1235 -20.9176 -20.7292 -20.1671 -19.8104 -19.4727 -19.3225 -19.1813
   -19.0199 -18.7856 -18.6478 -18.5484 -18.1554 -18.0933 -17.9280 -17.7291
   -12.3554 -12.1203 -12.0502 -11.9124 -11.6871 -11.6631 -11.5585 -10.9474
   -10.8970 -10.6307 -10.5283  -9.8665  -9.6995  -9.3418  -9.1169  -8.6760
    -8.6291  -8.5594  -8.3946  -8.3715  -8.1672  -8.1319  -8.0700  -8.0547
    -7.6949  -7.6291  -7.5007  -7.4791  -7.3638  -7.1769  -7.0731  -6.8673
    -6.6277  -6.3950  -6.1825  -6.1634  -5.9815  -5.9347  -5.7896  -5.7495
    -5.4570  -5.4058  -5.2162  -5.0455  -4.4507  -4.3515  -4.0962  -3.7722
    -2.7229  -1.9501  -1.8733  -1.7787  -1.6458  -1.5886  -1.5310  -1.5155
    -1.4897  -1.4402  -1.3754  -0.8187   0.5908   0.9227   1.0531   1.1226
     1.1926   1.2594   1.3505   1.8338   1.9009   2.1282

          k = 0.1667-0.0962 0.0000 ( 59226 PWs)   bands (ev):

   -72.8892 -72.8855 -44.4137 -44.3707 -44.2984 -44.2944 -44.2684 -44.2640
   -21.3197 -20.5430 -20.3513 -20.3450 -19.9933 -19.9881 -19.8107 -18.7341
   -18.7307 -18.3859 -18.3675 -18.3649 -18.2796 -18.2597 -18.0810 -18.0772
   -12.5174 -12.5056 -12.4137 -11.5867 -11.5834 -11.4385 -11.4199 -10.9319
   -10.9298  -9.9350  -9.9331  -9.6823  -9.3860  -9.3742  -9.2363  -9.2338
    -9.0476  -9.0461  -8.9302  -8.3292  -8.3276  -7.9099  -7.9028  -7.8896
    -7.8510  -7.7760  -7.6163  -7.5880  -7.1404  -7.1000  -6.9654  -6.8934
    -6.8915  -6.8562  -6.5359  -6.5348  -6.2630  -5.3549  -5.3266  -5.1490
    -5.0710  -4.8212  -4.7918  -4.7643  -4.6312  -4.6005  -4.3566  -4.3378
    -2.7299  -1.9502  -1.8740  -1.7850  -1.6499  -1.5879  -1.5252  -1.5126
    -1.4886  -1.4410  -1.3757  -0.8113   0.7752   0.9115   1.0368   1.1596
     1.2854   1.3236   1.5663   1.5817   1.6658   1.8706

          k =-0.5000-0.8660 0.0000 ( 59292 PWs)   bands (ev):

   -72.8892 -72.8855 -44.4138 -44.3707 -44.2984 -44.2944 -44.2684 -44.2640
   -21.0608 -21.0486 -20.4749 -20.4706 -19.4364 -19.4341 -19.4136 -19.4106
   -19.0016 -18.9906 -18.3371 -18.3324 -18.3255 -18.3038 -17.7972 -17.7954
   -12.0799 -12.0763 -12.0732 -12.0564 -11.8821 -11.8811 -11.3375 -11.3313
   -10.2409 -10.2399 -10.1418 -10.1375 -10.1344 -10.1315  -8.5926  -8.5609
    -8.5553  -8.5543  -8.5509  -8.5395  -7.8716  -7.8690  -7.8668  -7.8649
    -7.8271  -7.8239  -7.7865  -7.7607  -7.5000  -7.4874  -6.6160  -6.6153
    -6.3703  -6.3357  -6.3203  -6.2923  -6.1988  -6.1897  -5.7152  -5.7048
    -5.5549  -5.5438  -4.7346  -4.7265  -4.7037  -4.6945  -3.8897  -3.8760
    -2.7059  -1.9474  -1.8725  -1.7813  -1.6466  -1.5891  -1.5315  -1.5168
    -1.4946  -1.4449  -1.3761  -0.9459   0.7759   1.0686   1.0784   1.2293
     1.4187   1.5142   1.5511   1.6004   1.6203   1.7396

          k =-0.1667 0.2887 0.0000 ( 59267 PWs)   bands (ev):

   -72.8892 -72.8855 -44.4137 -44.3707 -44.2984 -44.2944 -44.2684 -44.2640
   -21.2534 -20.6700 -20.6589 -20.1176 -20.0954 -19.5970 -19.5852 -19.1054
   -18.7067 -18.6949 -18.4697 -18.4497 -18.2005 -18.0921 -18.0814 -17.8548
   -12.4911 -12.2171 -12.2033 -11.8285 -11.8221 -11.6640 -11.2002 -11.1931
   -10.3982 -10.3740 -10.1252 -10.1191  -9.5959  -9.5934  -8.8489  -8.8315
    -8.8251  -8.7756  -8.7638  -8.6020  -8.2029  -8.0546  -8.0273  -7.8374
    -7.8308  -7.4446  -7.4426  -7.2983  -7.2559  -7.2157  -7.2106  -6.9722
    -6.9549  -6.5674  -6.5496  -6.1601  -6.1580  -5.8775  -5.4242  -5.3014
    -5.2819  -5.2058  -4.9296  -4.8955  -4.5116  -4.3636  -4.3445  -3.9848
    -2.7264  -1.9501  -1.8737  -1.7819  -1.6473  -1.5883  -1.5279  -1.5140
    -1.4892  -1.4406  -1.3755  -0.8151   0.6777   0.9375   1.0749   1.1370
     1.2707   1.4543   1.4849   1.5820   1.5997   1.7706

          k = 0.3333 0.0000 0.0000 ( 59267 PWs)   bands (ev):

   -72.8892 -72.8855 -44.4138 -44.3707 -44.2984 -44.2944 -44.2684 -44.2640
   -21.2529 -20.6945 -20.6342 -20.1173 -20.0943 -19.6216 -19.5625 -19.1076
   -18.7225 -18.6736 -18.4721 -18.4494 -18.1963 -18.1145 -18.0655 -17.8540
   -12.4895 -12.2203 -12.2009 -11.8376 -11.8159 -11.6626 -11.2164 -11.1759
   -10.3981 -10.3727 -10.1396 -10.1062  -9.6020  -9.5858  -8.8493  -8.8343
    -8.8191  -8.7956  -8.7451  -8.6025  -8.2052  -8.1127  -7.9680  -7.8350
    -7.8305  -7.4520  -7.4355  -7.3075  -7.2406  -7.2242  -7.2013  -6.9741
    -6.9549  -6.6287  -6.4961  -6.1627  -6.1545  -5.8848  -5.4245  -5.3233
    -5.2476  -5.2061  -4.9368  -4.8914  -4.5028  -4.3958  -4.3257  -3.9834
    -2.7152  -1.9482  -1.8731  -1.7837  -1.6491  -1.5886  -1.5281  -1.5144
    -1.4917  -1.4438  -1.3759  -0.9033   0.7963   1.0894   1.1891   1.2298
     1.2522   1.4537   1.5006   1.5508   1.5888   1.7254

          k =-0.1667-0.4811 0.0000 ( 59291 PWs)   bands (ev):

   -72.8892 -72.8855 -44.4137 -44.3707 -44.2984 -44.2944 -44.2684 -44.2640
   -21.1235 -20.9176 -20.7292 -20.1671 -19.8104 -19.4727 -19.3225 -19.1813
   -19.0199 -18.7856 -18.6478 -18.5484 -18.1554 -18.0933 -17.9280 -17.7291
   -12.3555 -12.1202 -12.0502 -11.9123 -11.6871 -11.6631 -11.5585 -10.9474
   -10.8970 -10.6307 -10.5283  -9.8665  -9.6995  -9.3419  -9.1169  -8.6760
    -8.6291  -8.5594  -8.3946  -8.3715  -8.1672  -8.1319  -8.0701  -8.0548
    -7.6949  -7.6292  -7.5006  -7.4790  -7.3638  -7.1768  -7.0731  -6.8673
    -6.6278  -6.3950  -6.1826  -6.1634  -5.9815  -5.9346  -5.7895  -5.7495
    -5.4570  -5.4058  -5.2162  -5.0455  -4.4507  -4.3515  -4.0962  -3.7723
    -2.7229  -1.9501  -1.8733  -1.7787  -1.6458  -1.5886  -1.5310  -1.5155
    -1.4897  -1.4402  -1.3754  -0.8187   0.5908   0.9227   1.0531   1.1226
     1.1926   1.2594   1.3505   1.8337   1.9009   2.1280

          k = 0.5000-0.0962 0.0000 ( 59291 PWs)   bands (ev):

   -72.8892 -72.8855 -44.4138 -44.3707 -44.2984 -44.2944 -44.2684 -44.2640
   -21.1203 -20.9265 -20.7234 -20.1654 -19.8105 -19.4740 -19.3302 -19.1751
   -19.0212 -18.7855 -18.6371 -18.5555 -18.1437 -18.1105 -17.9240 -17.7289
   -12.3528 -12.1212 -12.0482 -11.9173 -11.7006 -11.6482 -11.5604 -10.9490
   -10.8933 -10.6279 -10.5315  -9.8646  -9.6998  -9.3427  -9.1164  -8.6640
    -8.6295  -8.5568  -8.4103  -8.3972  -8.1650  -8.1081  -8.0830  -8.0426
    -7.6904  -7.6298  -7.4997  -7.4806  -7.3575  -7.1777  -7.0744  -6.8659
    -6.6284  -6.4035  -6.2046  -6.1630  -5.9621  -5.9345  -5.7886  -5.7535
    -5.4581  -5.4048  -5.1906  -5.0624  -4.4260  -4.3849  -4.0901  -3.7721
    -2.7059  -1.9474  -1.8725  -1.7813  -1.6473  -1.5891  -1.5315  -1.5168
    -1.4946  -1.4449  -1.3761  -0.9456   0.7565   1.0477   1.1099   1.2096
     1.2881   1.3545   1.4582   1.7317   1.8166   1.8524

          k =-0.3333-0.3849 0.0000 ( 59291 PWs)   bands (ev):

   -72.8892 -72.8855 -44.4138 -44.3707 -44.2984 -44.2944 -44.2684 -44.2640
   -21.1214 -20.9234 -20.7256 -20.1652 -19.8124 -19.4724 -19.3246 -19.1785
   -19.0248 -18.7832 -18.6386 -18.5549 -18.1458 -18.1077 -17.9241 -17.7291
   -12.3546 -12.1177 -12.0515 -11.9148 -11.6886 -11.6618 -11.5599 -10.9485
   -10.8940 -10.6274 -10.5317  -9.8644  -9.6998  -9.3432  -9.1176  -8.6675
    -8.6284  -8.5588  -8.3968  -8.3943  -8.1666  -8.1171  -8.0703  -8.0571
    -7.6911  -7.6279  -7.5065  -7.4739  -7.3559  -7.1778  -7.0750  -6.8748
    -6.6265  -6.3957  -6.1862  -6.1655  -5.9751  -5.9328  -5.7887  -5.7648
    -5.4581  -5.3976  -5.1917  -5.0634  -4.4286  -4.3818  -4.0896  -3.7724
    -2.7117  -1.9484  -1.8727  -1.7804  -1.6464  -1.5889  -1.5312  -1.5163
    -1.4934  -1.4433  -1.3760  -0.9068   0.7013   1.0356   1.1142   1.2068
     1.2193   1.2900   1.3659   1.8027   1.8723   1.9140

          k = 0.5000 0.0962 0.0000 ( 59291 PWs)   bands (ev):

   -72.8892 -72.8855 -44.4138 -44.3707 -44.2984 -44.2944 -44.2684 -44.2640
   -21.1203 -20.9264 -20.7234 -20.1654 -19.8105 -19.4740 -19.3302 -19.1751
   -19.0212 -18.7855 -18.6371 -18.5555 -18.1437 -18.1105 -17.9239 -17.7289
   -12.3528 -12.1212 -12.0482 -11.9174 -11.7006 -11.6482 -11.5604 -10.9490
   -10.8933 -10.6279 -10.5316  -9.8646  -9.6998  -9.3427  -9.1163  -8.6640
    -8.6295  -8.5568  -8.4103  -8.3972  -8.1650  -8.1081  -8.0830  -8.0426
    -7.6905  -7.6298  -7.4997  -7.4806  -7.3575  -7.1778  -7.0744  -6.8659
    -6.6283  -6.4035  -6.2046  -6.1629  -5.9621  -5.9345  -5.7887  -5.7535
    -5.4581  -5.4048  -5.1906  -5.0624  -4.4259  -4.3849  -4.0901  -3.7721
    -2.7059  -1.9474  -1.8725  -1.7813  -1.6473  -1.5891  -1.5315  -1.5168
    -1.4946  -1.4449  -1.3761  -0.9456   0.7565   1.0477   1.1099   1.2096
     1.2881   1.3544   1.4581   1.7317   1.8166   1.8524

          k =-0.3333 0.3849 0.0000 ( 59291 PWs)   bands (ev):

   -72.8892 -72.8855 -44.4138 -44.3707 -44.2984 -44.2944 -44.2684 -44.2640
   -21.1214 -20.9234 -20.7256 -20.1652 -19.8124 -19.4724 -19.3246 -19.1785
   -19.0248 -18.7833 -18.6386 -18.5549 -18.1458 -18.1077 -17.9241 -17.7291
   -12.3546 -12.1177 -12.0515 -11.9148 -11.6887 -11.6618 -11.5599 -10.9486
   -10.8940 -10.6274 -10.5317  -9.8645  -9.6997  -9.3432  -9.1176  -8.6675
    -8.6284  -8.5587  -8.3969  -8.3944  -8.1666  -8.1171  -8.0703  -8.0571
    -7.6910  -7.6279  -7.5065  -7.4738  -7.3559  -7.1777  -7.0751  -6.8748
    -6.6265  -6.3956  -6.1862  -6.1655  -5.9751  -5.9329  -5.7886  -5.7648
    -5.4579  -5.3976  -5.1917  -5.0634  -4.4286  -4.3818  -4.0896  -3.7724
    -2.7117  -1.9484  -1.8727  -1.7804  -1.6464  -1.5889  -1.5312  -1.5163
    -1.4934  -1.4433  -1.3760  -0.9068   0.7013   1.0355   1.1142   1.2068
     1.2193   1.2900   1.3659   1.8028   1.8723   1.9139

          k =-0.1667-0.0962 0.0000 ( 59226 PWs)   bands (ev):

   -72.8892 -72.8855 -44.4137 -44.3707 -44.2984 -44.2944 -44.2684 -44.2640
   -21.3197 -20.5430 -20.3512 -20.3450 -19.9933 -19.9881 -19.8107 -18.7341
   -18.7307 -18.3859 -18.3675 -18.3649 -18.2796 -18.2597 -18.0810 -18.0772
   -12.5174 -12.5056 -12.4136 -11.5867 -11.5834 -11.4385 -11.4199 -10.9319
   -10.9298  -9.9350  -9.9331  -9.6823  -9.3860  -9.3741  -9.2363  -9.2338
    -9.0476  -9.0461  -8.9302  -8.3292  -8.3276  -7.9099  -7.9027  -7.8896
    -7.8510  -7.7760  -7.6163  -7.5880  -7.1404  -7.1000  -6.9655  -6.8934
    -6.8915  -6.8562  -6.5358  -6.5348  -6.2631  -5.3549  -5.3266  -5.1489
    -5.0711  -4.8212  -4.7917  -4.7643  -4.6312  -4.6005  -4.3566  -4.3378
    -2.7299  -1.9502  -1.8740  -1.7850  -1.6499  -1.5879  -1.5252  -1.5126
    -1.4886  -1.4410  -1.3757  -0.8113   0.7753   0.9115   1.0368   1.1596
     1.2854   1.3236   1.5663   1.5817   1.6658   1.8706

          k =-0.0000-0.1925 0.0000 ( 59226 PWs)   bands (ev):

   -72.8892 -72.8855 -44.4137 -44.3707 -44.2984 -44.2944 -44.2684 -44.2640
   -21.3198 -20.5369 -20.3676 -20.3387 -19.9970 -19.9759 -19.8152 -18.7421
   -18.7179 -18.4160 -18.3663 -18.3554 -18.2598 -18.2585 -18.0930 -18.0715
   -12.5211 -12.5029 -12.4128 -11.5939 -11.5764 -11.4381 -11.4186 -10.9347
   -10.9286  -9.9399  -9.9290  -9.6821  -9.3836  -9.3737  -9.2384  -9.2333
    -9.0475  -9.0471  -8.9308  -8.3320  -8.3242  -7.9100  -7.9027  -7.8678
    -7.8480  -7.7780  -7.6524  -7.5910  -7.1240  -7.0854  -6.9638  -6.8985
    -6.8882  -6.8709  -6.5403  -6.5293  -6.2639  -5.3573  -5.3124  -5.1491
    -5.0708  -4.8694  -4.7958  -4.7518  -4.5980  -4.5936  -4.3724  -4.3339
    -2.7353  -1.9511  -1.8742  -1.7841  -1.6491  -1.5877  -1.5252  -1.5127
    -1.4874  -1.4394  -1.3754  -0.7602   0.6880   0.8290   1.0304   1.1329
     1.2159   1.3953   1.5405   1.5843   1.7031   1.9459

          k = 0.5000-0.8660 0.0000 ( 59292 PWs)   bands (ev):

   -72.8892 -72.8855 -44.4138 -44.3707 -44.2984 -44.2944 -44.2684 -44.2640
   -21.0608 -21.0485 -20.4749 -20.4706 -19.4364 -19.4341 -19.4136 -19.4106
   -19.0016 -18.9905 -18.3371 -18.3324 -18.3255 -18.3038 -17.7971 -17.7954
   -12.0799 -12.0763 -12.0733 -12.0563 -11.8821 -11.8810 -11.3375 -11.3312
   -10.2409 -10.2399 -10.1418 -10.1375 -10.1344 -10.1315  -8.5926  -8.5610
    -8.5553  -8.5544  -8.5508  -8.5394  -7.8715  -7.8691  -7.8668  -7.8649
    -7.8272  -7.8239  -7.7865  -7.7607  -7.5000  -7.4874  -6.6159  -6.6152
    -6.3703  -6.3357  -6.3203  -6.2923  -6.1988  -6.1895  -5.7153  -5.7048
    -5.5550  -5.5438  -4.7346  -4.7265  -4.7036  -4.6945  -3.8897  -3.8760
    -2.7059  -1.9474  -1.8725  -1.7813  -1.6466  -1.5891  -1.5315  -1.5168
    -1.4946  -1.4449  -1.3761  -0.9459   0.7759   1.0687   1.0784   1.2293
     1.4187   1.5142   1.5511   1.6003   1.6202   1.7398

          k =-1.0000 0.0000 0.0000 ( 59292 PWs)   bands (ev):

   -72.8892 -72.8855 -44.4138 -44.3707 -44.2984 -44.2944 -44.2684 -44.2640
   -21.0833 -21.0227 -20.4888 -20.4619 -19.4538 -19.4131 -19.4117 -19.4085
   -19.0227 -18.9730 -18.3884 -18.3204 -18.3081 -18.2814 -17.8086 -17.7864
   -12.1234 -12.0742 -12.0496 -12.0356 -11.8921 -11.8708 -11.3569 -11.3126
   -10.2622 -10.2374 -10.1403 -10.1359 -10.1291 -10.1244  -8.6412  -8.5872
    -8.5565  -8.5375  -8.5187  -8.4938  -7.8908  -7.8801  -7.8663  -7.8548
    -7.8234  -7.8166  -7.8048  -7.7569  -7.5217  -7.4687  -6.6216  -6.6060
    -6.3889  -6.3207  -6.3017  -6.2830  -6.2156  -6.1757  -5.7550  -5.6759
    -5.5740  -5.5253  -4.8228  -4.7287  -4.6678  -4.6416  -3.9043  -3.8652
    -2.7284  -1.9509  -1.8737  -1.7778  -1.6455  -1.5885  -1.5309  -1.5152
    -1.4873  -1.4387  -1.3749  -0.7681   0.5482   0.7954   1.0620   1.0840
     1.2301   1.4159   1.5682   1.6147   1.6339   1.9363

 ------ SPIN DOWN ----------


          k = 0.1667 0.2887 0.0000 ( 59267 PWs)   bands (ev):

   -68.6760 -68.6716 -40.3150 -40.2625 -40.1162 -40.1113 -40.0508 -40.0453
   -21.2494 -20.6671 -20.6541 -20.1133 -20.0920 -19.5943 -19.5802 -19.1015
   -18.7034 -18.6894 -18.4654 -18.4460 -18.1960 -18.0890 -18.0770 -17.8507
   -12.4882 -12.2139 -12.2009 -11.8261 -11.8196 -11.6618 -11.1979 -11.1897
   -10.3952 -10.3711 -10.1229 -10.1155  -9.5935  -9.5904  -8.8360  -8.8221
    -8.8211  -8.7738  -8.7606  -8.5996  -8.2005  -8.0303  -8.0168  -7.8348
    -7.8285  -7.4418  -7.4388  -7.2778  -7.2431  -7.2137  -7.2077  -6.9694
    -6.9527  -6.5460  -6.5409  -6.1576  -6.1553  -5.8615  -5.4211  -5.2822
    -5.2665  -5.2032  -4.9138  -4.8839  -4.4956  -4.3492  -4.3338  -3.9711
    -1.3895   0.3431   0.9646   1.0532   1.1509   1.1997   1.3116   1.3453
     1.3915   1.4904   1.5290   1.5672   1.6123   1.7137   1.8768   2.0176
     2.0378   2.0854   2.1422   2.1685   2.2254   2.2775

          k = 0.1667-0.4811 0.0000 ( 59291 PWs)   bands (ev):

   -68.6760 -68.6716 -40.3150 -40.2625 -40.1162 -40.1113 -40.0508 -40.0453
   -21.1192 -20.9144 -20.7251 -20.1631 -19.8066 -19.4688 -19.3188 -19.1769
   -19.0161 -18.7817 -18.6424 -18.5452 -18.1499 -18.0910 -17.9236 -17.7248
   -12.3525 -12.1174 -12.0479 -11.9099 -11.6853 -11.6602 -11.5559 -10.9447
   -10.8937 -10.6273 -10.5258  -9.8632  -9.6967  -9.3388  -9.1143  -8.6522
    -8.6265  -8.5561  -8.3923  -8.3600  -8.1647  -8.1136  -8.0680  -8.0520
    -7.6920  -7.6266  -7.4982  -7.4766  -7.3456  -7.1737  -7.0708  -6.8512
    -6.6245  -6.3797  -6.1667  -6.1608  -5.9649  -5.9315  -5.7868  -5.7350
    -5.4544  -5.3904  -5.1944  -5.0364  -4.4312  -4.3447  -4.0818  -3.7591
    -1.3794   0.3313   0.9365   0.9949   1.0908   1.1407   1.2076   1.3150
     1.3537   1.4697   1.5089   1.7409   1.7652   1.8081   1.9088   2.0706
     2.0938   2.1300   2.1541   2.1874   2.2504   2.2918

          k = 0.1667-0.0962 0.0000 ( 59226 PWs)   bands (ev):

   -68.6760 -68.6716 -40.3150 -40.2625 -40.1162 -40.1113 -40.0508 -40.0453
   -21.3158 -20.5385 -20.3475 -20.3417 -19.9888 -19.9844 -19.8073 -18.7295
   -18.7266 -18.3814 -18.3642 -18.3606 -18.2752 -18.2552 -18.0770 -18.0739
   -12.5144 -12.5030 -12.4110 -11.5840 -11.5811 -11.4355 -11.4177 -10.9289
   -10.9273  -9.9321  -9.9304  -9.6791  -9.3829  -9.3715  -9.2330  -9.2310
    -9.0450  -9.0435  -8.9115  -8.3258  -8.3246  -7.9067  -7.9003  -7.8672
    -7.8471  -7.7737  -7.5990  -7.5777  -7.1151  -7.0890  -6.9628  -6.8908
    -6.8893  -6.8456  -6.5332  -6.5325  -6.2606  -5.3322  -5.3140  -5.1462
    -5.0682  -4.8046  -4.7779  -4.7494  -4.6158  -4.5883  -4.3405  -4.3285
    -1.3995   0.3575   0.9909   1.0328   1.0957   1.1314   1.2775   1.3647
     1.4193   1.5352   1.5833   1.6123   1.7489   1.8494   1.9023   1.9337
     2.0213   2.0420   2.0898   2.1702   2.2037   2.2762

          k =-0.5000-0.8660 0.0000 ( 59292 PWs)   bands (ev):

   -68.6760 -68.6716 -40.3150 -40.2625 -40.1162 -40.1113 -40.0507 -40.0453
   -21.0579 -21.0434 -20.4711 -20.4670 -19.4319 -19.4295 -19.4095 -19.4074
   -18.9991 -18.9854 -18.3331 -18.3275 -18.3243 -18.2973 -17.7928 -17.7916
   -12.0773 -12.0729 -12.0718 -12.0528 -11.8797 -11.8788 -11.3353 -11.3277
   -10.2381 -10.2371 -10.1384 -10.1348 -10.1312 -10.1290  -8.5656  -8.5545
    -8.5515  -8.5485  -8.5478  -8.5359  -7.8685  -7.8662  -7.8644  -7.8624
    -7.8233  -7.8207  -7.7692  -7.7497  -7.4984  -7.4843  -6.6133  -6.6124
    -6.3407  -6.3197  -6.3046  -6.2837  -6.1965  -6.1862  -5.7017  -5.6908
    -5.5532  -5.5402  -4.7170  -4.7117  -4.6914  -4.6809  -3.8740  -3.8657
    -1.3511   0.0842   0.9709   1.0173   1.1036   1.2582   1.3245   1.3674
     1.4521   1.5223   1.5762   1.7174   1.7636   1.8831   1.9127   1.9409
     1.9421   2.0832   2.1747   2.2138   2.2666   2.3089

          k =-0.1667 0.2887 0.0000 ( 59267 PWs)   bands (ev):

   -68.6760 -68.6716 -40.3150 -40.2625 -40.1162 -40.1113 -40.0508 -40.0453
   -21.2494 -20.6671 -20.6541 -20.1133 -20.0919 -19.5943 -19.5802 -19.1015
   -18.7035 -18.6893 -18.4654 -18.4460 -18.1960 -18.0890 -18.0770 -17.8507
   -12.4882 -12.2140 -12.2009 -11.8261 -11.8196 -11.6618 -11.1980 -11.1896
   -10.3952 -10.3711 -10.1229 -10.1155  -9.5935  -9.5903  -8.8360  -8.8220
    -8.8211  -8.7738  -8.7607  -8.5995  -8.2005  -8.0302  -8.0168  -7.8347
    -7.8285  -7.4418  -7.4389  -7.2778  -7.2431  -7.2137  -7.2076  -6.9695
    -6.9527  -6.5460  -6.5409  -6.1576  -6.1553  -5.8615  -5.4212  -5.2822
    -5.2665  -5.2031  -4.9138  -4.8839  -4.4957  -4.3492  -4.3337  -3.9711
    -1.3895   0.3431   0.9646   1.0532   1.1509   1.1997   1.3116   1.3453
     1.3915   1.4904   1.5290   1.5672   1.6123   1.7137   1.8768   2.0178
     2.0378   2.0855   2.1423   2.1686   2.2254   2.2776

          k = 0.3333 0.0000 0.0000 ( 59267 PWs)   bands (ev):

   -68.6760 -68.6716 -40.3150 -40.2625 -40.1163 -40.1113 -40.0508 -40.0453
   -21.2490 -20.6887 -20.6323 -20.1129 -20.0910 -19.6156 -19.5605 -19.1033
   -18.7165 -18.6718 -18.4676 -18.4456 -18.1926 -18.1077 -18.0635 -17.8500
   -12.4870 -12.2164 -12.1990 -11.8343 -11.8139 -11.6605 -11.2128 -11.1743
   -10.3949 -10.3702 -10.1350 -10.1047  -9.5987  -9.5839  -8.8359  -8.8275
    -8.8136  -8.7918  -8.7439  -8.6000  -8.2023  -8.0824  -7.9642  -7.8326
    -7.8283  -7.4476  -7.4333  -7.2843  -7.2322  -7.2211  -7.1996  -6.9710
    -6.9528  -6.6006  -6.4918  -6.1598  -6.1523  -5.8667  -5.4212  -5.3009
    -5.2389  -5.2034  -4.9198  -4.8803  -4.4890  -4.3757  -4.3167  -3.9703
    -1.3715   0.1684   0.9944   1.0792   1.1418   1.1797   1.3047   1.3833
     1.4691   1.4989   1.5562   1.6198   1.7850   1.8734   1.8764   1.9281
     2.0354   2.0493   2.1319   2.1606   2.2280   2.3627

          k =-0.1667-0.4811 0.0000 ( 59291 PWs)   bands (ev):

   -68.6760 -68.6716 -40.3150 -40.2625 -40.1162 -40.1113 -40.0508 -40.0453
   -21.1192 -20.9144 -20.7251 -20.1631 -19.8066 -19.4688 -19.3188 -19.1769
   -19.0161 -18.7817 -18.6424 -18.5452 -18.1499 -18.0910 -17.9236 -17.7248
   -12.3525 -12.1174 -12.0479 -11.9098 -11.6853 -11.6602 -11.5559 -10.9447
   -10.8938 -10.6273 -10.5258  -9.8632  -9.6967  -9.3389  -9.1143  -8.6522
    -8.6265  -8.5562  -8.3923  -8.3600  -8.1646  -8.1136  -8.0680  -8.0521
    -7.6920  -7.6267  -7.4981  -7.4766  -7.3456  -7.1736  -7.0708  -6.8512
    -6.6246  -6.3797  -6.1667  -6.1609  -5.9649  -5.9315  -5.7868  -5.7350
    -5.4545  -5.3904  -5.1944  -5.0364  -4.4311  -4.3447  -4.0818  -3.7591
    -1.3794   0.3313   0.9365   0.9949   1.0908   1.1407   1.2076   1.3150
     1.3538   1.4697   1.5089   1.7409   1.7653   1.8081   1.9089   2.0708
     2.0939   2.1302   2.1543   2.1875   2.2504   2.2917

          k = 0.5000-0.0962 0.0000 ( 59291 PWs)   bands (ev):

   -68.6760 -68.6716 -40.3150 -40.2625 -40.1162 -40.1113 -40.0508 -40.0453
   -21.1165 -20.9220 -20.7201 -20.1616 -19.8067 -19.4699 -19.3254 -19.1718
   -19.0171 -18.7814 -18.6336 -18.5513 -18.1403 -18.1051 -17.9202 -17.7247
   -12.3504 -12.1182 -12.0460 -11.9142 -11.6972 -11.6467 -11.5577 -10.9460
   -10.8906 -10.6249 -10.5286  -9.8615  -9.6971  -9.3397  -9.1138  -8.6440
    -8.6266  -8.5540  -8.3978  -8.3845  -8.1627  -8.0970  -8.0795  -8.0412
    -7.6882  -7.6272  -7.4973  -7.4780  -7.3410  -7.1745  -7.0718  -6.8503
    -6.6250  -6.3849  -6.1829  -6.1605  -5.9517  -5.9313  -5.7860  -5.7375
    -5.4554  -5.3899  -5.1759  -5.0485  -4.4121  -4.3695  -4.0776  -3.7591
    -1.3511   0.0859   0.9662   1.0043   1.0920   1.1671   1.2714   1.3071
     1.3539   1.6239   1.7044   1.7341   1.8335   1.9214   1.9387   1.9864
     2.0265   2.1382   2.1890   2.2406   2.2619   2.3043

          k =-0.3333-0.3849 0.0000 ( 59291 PWs)   bands (ev):

   -68.6760 -68.6716 -40.3150 -40.2625 -40.1162 -40.1113 -40.0508 -40.0453
   -21.1174 -20.9193 -20.7220 -20.1614 -19.8083 -19.4686 -19.3207 -19.1746
   -19.0203 -18.7795 -18.6347 -18.5508 -18.1419 -18.1030 -17.9204 -17.7249
   -12.3518 -12.1153 -12.0488 -11.9121 -11.6866 -11.6588 -11.5571 -10.9455
   -10.8912 -10.6245 -10.5289  -9.8615  -9.6971  -9.3400  -9.1147  -8.6461
    -8.6258  -8.5556  -8.3938  -8.3764  -8.1641  -8.1033  -8.0683  -8.0539
    -7.6888  -7.6255  -7.5033  -7.4721  -7.3400  -7.1746  -7.0723  -6.8564
    -6.6233  -6.3798  -6.1699  -6.1623  -5.9605  -5.9299  -5.7861  -5.7458
    -5.4554  -5.3850  -5.1768  -5.0488  -4.4144  -4.3670  -4.0773  -3.7593
    -1.3609   0.1550   0.9578   0.9966   1.0848   1.1919   1.2562   1.3005
     1.3503   1.5441   1.6903   1.7458   1.8057   1.8873   1.9546   1.9921
     2.0545   2.1061   2.1252   2.2177   2.2539   2.3103

          k = 0.5000 0.0962 0.0000 ( 59291 PWs)   bands (ev):

   -68.6760 -68.6716 -40.3150 -40.2625 -40.1162 -40.1113 -40.0508 -40.0453
   -21.1165 -20.9220 -20.7201 -20.1616 -19.8067 -19.4699 -19.3254 -19.1718
   -19.0171 -18.7814 -18.6336 -18.5513 -18.1403 -18.1051 -17.9202 -17.7247
   -12.3504 -12.1182 -12.0460 -11.9143 -11.6972 -11.6467 -11.5577 -10.9460
   -10.8906 -10.6250 -10.5286  -9.8615  -9.6971  -9.3397  -9.1138  -8.6440
    -8.6266  -8.5541  -8.3977  -8.3845  -8.1627  -8.0970  -8.0795  -8.0412
    -7.6882  -7.6272  -7.4973  -7.4781  -7.3410  -7.1746  -7.0717  -6.8503
    -6.6249  -6.3849  -6.1829  -6.1604  -5.9517  -5.9312  -5.7861  -5.7375
    -5.4555  -5.3899  -5.1759  -5.0485  -4.4121  -4.3695  -4.0776  -3.7591
    -1.3511   0.0859   0.9663   1.0043   1.0920   1.1671   1.2714   1.3071
     1.3539   1.6239   1.7043   1.7341   1.8335   1.9213   1.9385   1.9864
     2.0265   2.1383   2.1890   2.2406   2.2618   2.3043

          k =-0.3333 0.3849 0.0000 ( 59291 PWs)   bands (ev):

   -68.6760 -68.6716 -40.3150 -40.2625 -40.1162 -40.1113 -40.0508 -40.0453
   -21.1174 -20.9193 -20.7220 -20.1614 -19.8083 -19.4686 -19.3207 -19.1747
   -19.0203 -18.7795 -18.6347 -18.5508 -18.1419 -18.1030 -17.9204 -17.7249
   -12.3518 -12.1153 -12.0488 -11.9121 -11.6867 -11.6588 -11.5571 -10.9455
   -10.8912 -10.6245 -10.5289  -9.8615  -9.6971  -9.3400  -9.1147  -8.6461
    -8.6259  -8.5556  -8.3938  -8.3764  -8.1642  -8.1033  -8.0683  -8.0539
    -7.6887  -7.6255  -7.5033  -7.4721  -7.3400  -7.1746  -7.0724  -6.8564
    -6.6233  -6.3798  -6.1699  -6.1623  -5.9605  -5.9300  -5.7860  -5.7458
    -5.4553  -5.3850  -5.1769  -5.0488  -4.4144  -4.3670  -4.0773  -3.7593
    -1.3609   0.1550   0.9578   0.9966   1.0848   1.1919   1.2562   1.3005
     1.3502   1.5441   1.6903   1.7458   1.8057   1.8873   1.9547   1.9918
     2.0540   2.1062   2.1251   2.2172   2.2539   2.3094

          k =-0.1667-0.0962 0.0000 ( 59226 PWs)   bands (ev):

   -68.6760 -68.6716 -40.3150 -40.2625 -40.1162 -40.1113 -40.0508 -40.0453
   -21.3158 -20.5385 -20.3475 -20.3417 -19.9888 -19.9844 -19.8073 -18.7295
   -18.7266 -18.3814 -18.3642 -18.3606 -18.2752 -18.2552 -18.0770 -18.0739
   -12.5144 -12.5030 -12.4110 -11.5840 -11.5811 -11.4355 -11.4177 -10.9289
   -10.9273  -9.9321  -9.9304  -9.6791  -9.3829  -9.3715  -9.2330  -9.2310
    -9.0450  -9.0435  -8.9115  -8.3258  -8.3246  -7.9067  -7.9003  -7.8672
    -7.8471  -7.7737  -7.5990  -7.5777  -7.1151  -7.0890  -6.9629  -6.8908
    -6.8892  -6.8456  -6.5331  -6.5324  -6.2606  -5.3322  -5.3140  -5.1461
    -5.0683  -4.8046  -4.7779  -4.7495  -4.6157  -4.5883  -4.3405  -4.3285
    -1.3995   0.3575   0.9909   1.0328   1.0957   1.1315   1.2775   1.3646
     1.4194   1.5352   1.5833   1.6123   1.7490   1.8494   1.9023   1.9336
     2.0214   2.0419   2.0894   2.1706   2.2037   2.2765

          k =-0.0000-0.1925 0.0000 ( 59226 PWs)   bands (ev):

   -68.6760 -68.6716 -40.3149 -40.2625 -40.1163 -40.1113 -40.0508 -40.0453
   -21.3159 -20.5333 -20.3628 -20.3349 -19.9931 -19.9728 -19.8111 -18.7376
   -18.7144 -18.4087 -18.3623 -18.3515 -18.2568 -18.2562 -18.0885 -18.0675
   -12.5173 -12.5010 -12.4103 -11.5912 -11.5743 -11.4346 -11.4168 -10.9318
   -10.9259  -9.9368  -9.9263  -9.6791  -9.3810  -9.3712  -9.2349  -9.2302
    -9.0447  -9.0445  -8.9120  -8.3287  -8.3210  -7.9073  -7.9004  -7.8537
    -7.8423  -7.7754  -7.6266  -7.5775  -7.1083  -7.0740  -6.9614  -6.8957
    -6.8859  -6.8562  -6.5377  -6.5270  -6.2613  -5.3381  -5.2995  -5.1463
    -5.0681  -4.8429  -4.7785  -4.7389  -4.5922  -4.5834  -4.3558  -4.3216
    -1.4079   0.4881   0.9644   1.0223   1.0620   1.1477   1.2706   1.3241
     1.3844   1.4820   1.5259   1.5751   1.7671   1.8365   1.8383   2.0107
     2.0266   2.0415   2.1105   2.1288   2.2040   2.2409

          k = 0.5000-0.8660 0.0000 ( 59292 PWs)   bands (ev):

   -68.6760 -68.6716 -40.3150 -40.2625 -40.1162 -40.1113 -40.0507 -40.0453
   -21.0580 -21.0434 -20.4711 -20.4670 -19.4319 -19.4295 -19.4095 -19.4074
   -18.9992 -18.9853 -18.3330 -18.3276 -18.3244 -18.2973 -17.7928 -17.7915
   -12.0773 -12.0729 -12.0719 -12.0528 -11.8797 -11.8788 -11.3354 -11.3276
   -10.2381 -10.2371 -10.1384 -10.1348 -10.1312 -10.1290  -8.5656  -8.5545
    -8.5515  -8.5485  -8.5477  -8.5358  -7.8685  -7.8662  -7.8644  -7.8624
    -7.8233  -7.8208  -7.7692  -7.7497  -7.4985  -7.4844  -6.6133  -6.6124
    -6.3407  -6.3197  -6.3046  -6.2837  -6.1965  -6.1860  -5.7017  -5.6908
    -5.5533  -5.5403  -4.7169  -4.7117  -4.6914  -4.6808  -3.8740  -3.8657
    -1.3511   0.0841   0.9709   1.0173   1.1035   1.2582   1.3245   1.3674
     1.4521   1.5223   1.5762   1.7173   1.7636   1.8830   1.9127   1.9408
     1.9420   2.0832   2.1747   2.2138   2.2665   2.3089

          k =-1.0000 0.0000 0.0000 ( 59292 PWs)   bands (ev):

   -68.6760 -68.6716 -40.3150 -40.2625 -40.1162 -40.1113 -40.0508 -40.0453
   -21.0777 -21.0208 -20.4842 -20.4583 -19.4488 -19.4097 -19.4083 -19.4052
   -19.0164 -18.9711 -18.3801 -18.3151 -18.3058 -18.2809 -17.8040 -17.7825
   -12.1169 -12.0720 -12.0482 -12.0348 -11.8895 -11.8691 -11.3529 -11.3110
   -10.2572 -10.2340 -10.1377 -10.1336 -10.1264 -10.1222  -8.6100  -8.5829
    -8.5537  -8.5354  -8.5181  -8.4901  -7.8865  -7.8766  -7.8633  -7.8525
    -7.8151  -7.8146  -7.7878  -7.7442  -7.5178  -7.4676  -6.6188  -6.6038
    -6.3625  -6.3025  -6.2911  -6.2757  -6.2113  -6.1737  -5.7321  -5.6674
    -5.5698  -5.5242  -4.7939  -4.7062  -4.6625  -4.6403  -3.8885  -3.8536
    -1.3882   0.4555   0.9230   1.0199   1.0807   1.2078   1.2551   1.2659
     1.3242   1.3756   1.6033   1.6313   1.6862   1.7714   1.7982   1.9150
     2.0992   2.1063   2.1235   2.1899   2.2581   2.3267

     the Fermi energy is    -1.1647 ev

!    total energy              =   -1133.82323852 Ry

     total all-electron energy =     -6753.498942 Ry
     estimated scf accuracy    <       0.00000002 Ry
     smearing contrib. (-TS)   =      -0.00000000 Ry
     internal energy E=F+TS    =   -1133.82323852 Ry

     The total energy is F=E-TS. E is the sum of the following terms:
     one-electron contribution =   -3945.88378647 Ry
     hartree contribution      =    2001.10378425 Ry
     xc contribution           =    -186.01166816 Ry
     ewald contribution        =    1356.34394096 Ry
     DFT-D3 Dispersion         =      -0.13527361 Ry
     one-center paw contrib.   =    -359.24023549 Ry

     total magnetization       =    10.00 Bohr mag/cell
     absolute magnetization    =    10.01 Bohr mag/cell

     convergence has been achieved in  15 iterations

     Writing output data file ./mytmp/Crdimer0.15-0.3.save/
 
     init_run     :     18.95s CPU     20.26s WALL (       1 calls)
     electrons    :    565.23s CPU    613.16s WALL (       1 calls)

     Called by init_run:
     wfcinit      :     13.88s CPU     14.72s WALL (       1 calls)
     potinit      :      1.53s CPU      1.59s WALL (       1 calls)
     hinit0       :      1.52s CPU      1.59s WALL (       1 calls)

     Called by electrons:
     c_bands      :    441.36s CPU    468.62s WALL (      15 calls)
     sum_band     :     87.64s CPU     99.87s WALL (      15 calls)
     v_of_rho     :      8.13s CPU      8.97s WALL (      16 calls)
     newd         :     19.59s CPU     27.10s WALL (      16 calls)
     PAW_pot      :      7.95s CPU      8.05s WALL (      16 calls)
     mix_rho      :      1.09s CPU      1.21s WALL (      15 calls)

     Called by c_bands:
     init_us_2    :      5.36s CPU      5.40s WALL (     930 calls)
     cegterg      :    428.11s CPU    455.28s WALL (     450 calls)

     Called by *egterg:
     cdiaghg      :     27.01s CPU     42.66s WALL (    3039 calls)
     h_psi        :    257.44s CPU    267.50s WALL (    3069 calls)
     s_psi        :     28.88s CPU     28.96s WALL (    3069 calls)
     g_psi        :      0.64s CPU      0.65s WALL (    2589 calls)

     Called by h_psi:
     h_psi:calbec :     30.85s CPU     31.62s WALL (    3069 calls)
     vloc_psi     :    194.86s CPU    203.91s WALL (    3069 calls)
     add_vuspsi   :     29.49s CPU     29.69s WALL (    3069 calls)

     General routines
     calbec       :     41.26s CPU     42.22s WALL (    3519 calls)
     fft          :     10.26s CPU     15.14s WALL (     394 calls)
     ffts         :      0.16s CPU      0.16s WALL (      62 calls)
     fftw         :    201.47s CPU    210.72s WALL (  262080 calls)
     interpolate  :      0.45s CPU      0.52s WALL (      32 calls)
 
     Parallel routines
     fft_scatt_xy :     32.76s CPU     33.96s WALL (  262536 calls)
     fft_scatt_yz :     84.56s CPU     93.85s WALL (  262536 calls)
 
     PWSCF        :   9m46.19s CPU  10m38.13s WALL

 
   This run was terminated on:  15:37:50  31Mar2021            

=------------------------------------------------------------------------------=
   JOB DONE.
=------------------------------------------------------------------------------=
