
     Program PWSCF v.6.7MaX starts on 31Mar2021 at 11:20:49 

     This program is part of the open-source Quantum ESPRESSO suite
     for quantum simulation of materials; please cite
         "P. Giannozzi et al., J. Phys.:Condens. Matter 21 395502 (2009);
         "P. Giannozzi et al., J. Phys.:Condens. Matter 29 465901 (2017);
          URL http://www.quantum-espresso.org", 
     in publications or presentations arising from this work. More details at
     http://www.quantum-espresso.org/quote

     Parallel version (MPI), running on    48 processors

     MPI processes distributed on     1 nodes
     R & G space division:  proc/nbgrp/npool/nimage =      48
     Reading input from Crdimer0.11-0.2.scf.in

     Current dimensions of program PWSCF are:
     Max number of different atomic species (ntypx) = 10
     Max number of k-points (npk) =  40000
     Max angular momentum in pseudopotentials (lmaxx) =  3
     file N.pbe-n-kjpaw_psl.1.0.0.UPF: wavefunction(s)  2S renormalized
     file Cr.pbe-spn-kjpaw_psl.1.0.0.UPF: wavefunction(s)  3S 3P 3D renormalized
     file Cr.pbe-spn-kjpaw_psl.1.0.0.UPF: wavefunction(s)  3S 3P 3D renormalized

     --------------------------------------------
     Parameters for DFT-D3 Dispersion Correction:
     --------------------------------------------
       Reference C6 values for interpolation: 

         atom   Coordination number   C6
         B          0.000           214.36
         B          0.971           150.74
         B          1.944           106.23
         B          2.913            62.89
         B          4.586            56.06
         N          0.000            50.54
         N          0.994            44.25
         N          2.014            39.35
         N          2.990            31.16
         Cr1        0.000          1381.48
         Cr1        1.827           571.38
         Cr1       10.619           306.69
         Cr2        0.000          1381.48
         Cr2        1.827           571.38
         Cr2       10.619           306.69

       Values used:

         atom   Coordination number  R0_AB[au]  C6      C8
         B          3.337            3.039     62.89   2505.96
         B          3.335            3.039     62.89   2506.01
         B          3.346            3.039     62.88   2505.73
         B          3.335            3.039     62.89   2506.00
         B          3.381            3.039     62.86   2504.70
         B          3.335            3.039     62.89   2506.00
         N          3.134            2.478     31.22    688.70
         N          3.135            2.478     31.22    688.69
         N          3.153            2.478     31.21    688.53
         N          3.135            2.478     31.22    688.69
         N          3.150            2.478     31.21    688.56
         N          3.134            2.478     31.22    688.70
         N          3.140            2.478     31.22    688.64
         N          3.134            2.478     31.22    688.70
         N          3.135            2.478     31.22    688.69
         B          3.336            3.039     62.89   2505.98
         B          3.335            3.039     62.89   2506.01
         B          3.335            3.039     62.89   2506.00
         B          3.381            3.039     62.86   2504.70
         B          3.337            3.039     62.89   2505.96
         B          3.336            3.039     62.89   2505.98
         N          3.140            2.478     31.22    688.64
         B          3.335            3.039     62.89   2506.01
         B          3.338            3.039     62.89   2505.94
         B          3.339            3.039     62.89   2505.90
         N          3.134            2.478     31.22    688.70
         N          3.135            2.478     31.22    688.69
         N          3.134            2.478     31.22    688.69
         N          3.134            2.478     31.22    688.69
         N          3.153            2.478     31.21    688.53
         N          3.135            2.478     31.22    688.69
         B          3.339            3.039     62.89   2505.90
         Cr1        1.097            3.252    609.22  56223.71
         Cr2        1.097            3.252    609.22  56223.71

         Molecular C6 ( Ry / a.u.^6 ) =     68856.50


     Subspace diagonalization in iterative solution of the eigenvalue problem:
     one sub-group per band group will be used
     scalapack distributed-memory algorithm (size of sub-group:  6*  6 procs)

 
     Parallelization info
     --------------------
     sticks:   dense  smooth     PW     G-vecs:    dense   smooth      PW
     Min         235      98     26                36277     9874    1408
     Max         236      99     27                36282     9883    1425
     Sum       11311    4741   1285              1741401   474235   68095
 


     bravais-lattice index     =            4
     lattice parameter (alat)  =      18.9275  a.u.
     unit-cell volume          =   10553.3021 (a.u.)^3
     number of atoms/cell      =           34
     number of atomic types    =            4
     number of electrons       =       156.00
     number of Kohn-Sham states=           94
     kinetic-energy cutoff     =      48.0000  Ry
     charge density cutoff     =     457.0000  Ry
     scf convergence threshold =      1.0E-07
     mixing beta               =       0.5000
     number of iterations used =            8  plain     mixing
     Exchange-correlation= SLA  PW   PBX  PBC
                           (   1   4   3   4   0   0   0)

     celldm(1)=  18.927497  celldm(2)=   0.000000  celldm(3)=   1.797125
     celldm(4)=   0.000000  celldm(5)=   0.000000  celldm(6)=   0.000000

     crystal axes: (cart. coord. in units of alat)
               a(1) = (   1.000000   0.000000   0.000000 )  
               a(2) = (  -0.500000   0.866025   0.000000 )  
               a(3) = (   0.000000   0.000000   1.797125 )  

     reciprocal axes: (cart. coord. in units 2 pi/alat)
               b(1) = (  1.000000  0.577350  0.000000 )  
               b(2) = (  0.000000  1.154701  0.000000 )  
               b(3) = (  0.000000  0.000000  0.556444 )  


     PseudoPot. # 1 for B  read from file:
     /home/sf05/q-e-qe-6.7MaX-Release/pseudo/B.pbe-n-kjpaw_psl.1.0.0.UPF
     MD5 check sum: d9c678ba5d3b2fd7b74e61139c9288d8
     Pseudo is Projector augmented-wave + core cor, Zval =  3.0
     Generated using "atomic" code by A. Dal Corso  v.5.1.2
     Shape of augmentation charge: PSQ
     Using radial grid of 1059 points,  4 beta functions with: 
                l(1) =   0
                l(2) =   0
                l(3) =   1
                l(4) =   1
     Q(r) pseudized with 0 coefficients 


     PseudoPot. # 2 for N  read from file:
     /home/sf05/q-e-qe-6.7MaX-Release/pseudo/N.pbe-n-kjpaw_psl.1.0.0.UPF
     MD5 check sum: e0e4e94a9c4025c5b51bd7d8793849bd
     Pseudo is Projector augmented-wave + core cor, Zval =  5.0
     Generated using "atomic" code by A. Dal Corso  v.5.1.2
     Shape of augmentation charge: PSQ
     Using radial grid of 1085 points,  4 beta functions with: 
                l(1) =   0
                l(2) =   0
                l(3) =   1
                l(4) =   1
     Q(r) pseudized with 0 coefficients 


     PseudoPot. # 3 for Cr read from file:
     /home/sf05/q-e-qe-6.7MaX-Release/pseudo/Cr.pbe-spn-kjpaw_psl.1.0.0.UPF
     MD5 check sum: 198f1a2427a48552563eee314eba32ba
     Pseudo is Projector augmented-wave + core cor, Zval = 14.0
     Generated using &quot;atomic&quot; code by A. Dal Corso  v.6.3
     Shape of augmentation charge: PSQ
     Using radial grid of 1183 points,  6 beta functions with: 
                l(1) =   0
                l(2) =   0
                l(3) =   1
                l(4) =   1
                l(5) =   2
                l(6) =   2
     Q(r) pseudized with 0 coefficients 


     PseudoPot. # 4 for Cr read from file:
     /home/sf05/q-e-qe-6.7MaX-Release/pseudo/Cr.pbe-spn-kjpaw_psl.1.0.0.UPF
     MD5 check sum: 198f1a2427a48552563eee314eba32ba
     Pseudo is Projector augmented-wave + core cor, Zval = 14.0
     Generated using &quot;atomic&quot; code by A. Dal Corso  v.6.3
     Shape of augmentation charge: PSQ
     Using radial grid of 1183 points,  6 beta functions with: 
                l(1) =   0
                l(2) =   0
                l(3) =   1
                l(4) =   1
                l(5) =   2
                l(6) =   2
     Q(r) pseudized with 0 coefficients 


     atomic species   valence    mass     pseudopotential
        B              3.00    10.81100     B ( 1.00)
        N              5.00    14.00674     N ( 1.00)
        Cr1           14.00    51.99610     Cr( 1.00)
        Cr2           14.00    51.99610     Cr( 1.00)

     Starting magnetic structure 
     atomic species   magnetization
        B            0.000
        N            0.000
        Cr1          1.000
        Cr2          1.000

     No symmetry found



   Cartesian axes

     site n.     atom                  positions (alat units)
         1           B   tau(   1) = (  -0.1250000   0.2165064   0.8985623  )
         2           B   tau(   2) = (   0.3750000   0.6495191   0.8985623  )
         3           B   tau(   3) = (   0.2500000   0.0000000   0.8985623  )
         4           B   tau(   4) = (   0.7500000   0.0000000   0.8985623  )
         5           B   tau(   5) = (   0.1250000   0.2165064   0.8985623  )
         6           B   tau(   6) = (  -0.3750000   0.6495191   0.8985623  )
         7           N   tau(   7) = (   0.7500005   0.2886748   0.8985623  )
         8           N   tau(   8) = (   0.3750005   0.5051812   0.8985623  )
         9           N   tau(   9) = (   0.3750005   0.0721685   0.8985623  )
        10           N   tau(  10) = (   0.6250005   0.0721685   0.8985623  )
        11           N   tau(  11) = (   0.2500005   0.2886748   0.8985623  )
        12           N   tau(  12) = (   0.6250005   0.5051812   0.8985623  )
        13           N   tau(  13) = (   0.0000005   0.2886748   0.8985623  )
        14           N   tau(  14) = (   0.2500005   0.7216875   0.8985623  )
        15           N   tau(  15) = (  -0.2499995   0.7216875   0.8985623  )
        16           B   tau(  16) = (   0.0000000   0.4330127   0.8985623  )
        17           B   tau(  17) = (   0.1250000   0.6495191   0.8985623  )
        18           B   tau(  18) = (  -0.1250000   0.6495191   0.8985623  )
        19           B   tau(  19) = (   0.3750000   0.2165064   0.8985623  )
        20           B   tau(  20) = (   0.6250000   0.2165064   0.8985623  )
        21           B   tau(  21) = (   0.5000000   0.4330127   0.8985623  )
        22           N   tau(  22) = (   0.5000005   0.2886748   0.8985623  )
        23           B   tau(  23) = (  -0.2500000   0.4330127   0.8985623  )
        24           B   tau(  24) = (   0.2500000   0.4330127   0.8985623  )
        25           B   tau(  25) = (   0.5000000   0.0000000   0.8985623  )
        26           N   tau(  26) = (  -0.1249995   0.5051812   0.8985623  )
        27           N   tau(  27) = (   0.1250005   0.5051812   0.8985623  )
        28           N   tau(  28) = (   0.0000005   0.7216875   0.8985623  )
        29           N   tau(  29) = (   0.5000005   0.7216875   0.8985623  )
        30           N   tau(  30) = (   0.1250005   0.0721685   0.8985623  )
        31           N   tau(  31) = (   0.8750005   0.0721685   0.8985623  )
        32           B   tau(  32) = (   0.0000000   0.0000000   0.8985623  )
        33           Cr1 tau(  33) = (   0.3600000   0.1732051   1.2040735  )
        34           Cr2 tau(  34) = (   0.1400000   0.1732051   1.2040735  )

     number of k points=    15  Gaussian smearing, width (Ry)=  0.0000
                       cart. coord. in units 2pi/alat
        k(    1) = (   0.1666667   0.2886751   0.0000000), wk =   0.0740741
        k(    2) = (   0.1666667  -0.4811252   0.0000000), wk =   0.0740741
        k(    3) = (   0.1666667  -0.0962250   0.0000000), wk =   0.0740741
        k(    4) = (  -0.5000000  -0.8660254   0.0000000), wk =   0.0370370
        k(    5) = (  -0.1666667   0.2886751   0.0000000), wk =   0.0740741
        k(    6) = (   0.3333333   0.0000000   0.0000000), wk =   0.0740741
        k(    7) = (  -0.1666667  -0.4811252   0.0000000), wk =   0.0740741
        k(    8) = (   0.5000000  -0.0962250   0.0000000), wk =   0.0740741
        k(    9) = (  -0.3333333  -0.3849002   0.0000000), wk =   0.0740741
        k(   10) = (   0.5000000   0.0962250   0.0000000), wk =   0.0740741
        k(   11) = (  -0.3333333   0.3849002   0.0000000), wk =   0.0740741
        k(   12) = (  -0.1666667  -0.0962250   0.0000000), wk =   0.0740741
        k(   13) = (  -0.0000000  -0.1924501   0.0000000), wk =   0.0740741
        k(   14) = (   0.5000000  -0.8660254   0.0000000), wk =   0.0370370
        k(   15) = (  -1.0000000   0.0000000   0.0000000), wk =   0.0370370

     Dense  grid:  1741401 G-vectors     FFT dimensions: ( 135, 135, 240)

     Smooth grid:   474235 G-vectors     FFT dimensions: (  90,  90, 160)

     Estimated max dynamical RAM per process >     218.62 MB

     Estimated total dynamical RAM >      10.25 GB
     Generating pointlists ...
     new r_m :   0.0595 (alat units)  1.1269 (a.u.) for type    1
     new r_m :   0.0595 (alat units)  1.1269 (a.u.) for type    2
     new r_m :   0.0907 (alat units)  1.7177 (a.u.) for type    3
     new r_m :   0.0907 (alat units)  1.7177 (a.u.) for type    4

     Initial potential from superposition of free atoms

     starting charge  155.99382, renormalised to  156.00000

     negative rho (up, down):  6.839E-03 4.655E-04
     Starting wfcs are  148 randomized atomic wfcs
     Checking if some PAW data can be deallocated... 

     total cpu time spent up to now is       19.6 secs

     Self-consistent Calculation

     iteration #  1     ecut=    48.00 Ry     beta= 0.50
     Davidson diagonalization with overlap
     ethr =  1.00E-02,  avg # of iterations =  3.0

     negative rho (up, down):  5.114E-03 2.886E-03

     total cpu time spent up to now is       60.3 secs

     total energy              =   -1130.60714593 Ry
     estimated scf accuracy    <      11.40888571 Ry

     total magnetization       =    12.00 Bohr mag/cell
     absolute magnetization    =    12.08 Bohr mag/cell

     iteration #  2     ecut=    48.00 Ry     beta= 0.50
     Davidson diagonalization with overlap
     ethr =  7.31E-03,  avg # of iterations =  2.7

     negative rho (up, down):  9.091E-03 6.939E-03

     total cpu time spent up to now is       97.6 secs

     total energy              =   -1133.00456706 Ry
     estimated scf accuracy    <       3.32360910 Ry

     total magnetization       =    10.00 Bohr mag/cell
     absolute magnetization    =    10.22 Bohr mag/cell

     iteration #  3     ecut=    48.00 Ry     beta= 0.50
     Davidson diagonalization with overlap
     ethr =  2.13E-03,  avg # of iterations =  8.2

     negative rho (up, down):  3.995E-03 3.310E-03

     total cpu time spent up to now is      137.5 secs

     total energy              =   -1133.49197582 Ry
     estimated scf accuracy    <       0.82452715 Ry

     total magnetization       =    10.00 Bohr mag/cell
     absolute magnetization    =    10.11 Bohr mag/cell

     iteration #  4     ecut=    48.00 Ry     beta= 0.50
     Davidson diagonalization with overlap
     ethr =  5.29E-04,  avg # of iterations =  6.6

     negative rho (up, down):  9.101E-03 9.061E-03

     total cpu time spent up to now is      173.7 secs

     total energy              =   -1133.64301086 Ry
     estimated scf accuracy    <       0.81572969 Ry

     total magnetization       =    10.00 Bohr mag/cell
     absolute magnetization    =    10.01 Bohr mag/cell

     iteration #  5     ecut=    48.00 Ry     beta= 0.50
     Davidson diagonalization with overlap
     ethr =  5.23E-04,  avg # of iterations =  5.7

     negative rho (up, down):  4.703E-03 5.109E-03

     total cpu time spent up to now is      208.3 secs

     total energy              =   -1133.73732519 Ry
     estimated scf accuracy    <       0.05432008 Ry

     total magnetization       =    10.00 Bohr mag/cell
     absolute magnetization    =    10.02 Bohr mag/cell

     iteration #  6     ecut=    48.00 Ry     beta= 0.50
     Davidson diagonalization with overlap
     c_bands:  2 eigenvalues not converged
     c_bands:  1 eigenvalues not converged
     ethr =  3.48E-05,  avg # of iterations = 10.4

     negative rho (up, down):  3.802E-03 4.214E-03

     total cpu time spent up to now is      252.0 secs

     total energy              =   -1133.74166715 Ry
     estimated scf accuracy    <       0.01308584 Ry

     total magnetization       =    10.00 Bohr mag/cell
     absolute magnetization    =    10.02 Bohr mag/cell

     iteration #  7     ecut=    48.00 Ry     beta= 0.50
     Davidson diagonalization with overlap
     c_bands:  1 eigenvalues not converged
     ethr =  8.39E-06,  avg # of iterations =  9.1

     negative rho (up, down):  3.674E-03 4.098E-03

     total cpu time spent up to now is      294.2 secs

     total energy              =   -1133.74470063 Ry
     estimated scf accuracy    <       0.00628874 Ry

     total magnetization       =    10.00 Bohr mag/cell
     absolute magnetization    =    10.01 Bohr mag/cell

     iteration #  8     ecut=    48.00 Ry     beta= 0.50
     Davidson diagonalization with overlap
     ethr =  4.03E-06,  avg # of iterations =  7.2

     negative rho (up, down):  3.363E-03 3.946E-03

     total cpu time spent up to now is      330.2 secs

     total energy              =   -1133.74559759 Ry
     estimated scf accuracy    <       0.00061206 Ry

     total magnetization       =    10.00 Bohr mag/cell
     absolute magnetization    =    10.02 Bohr mag/cell

     iteration #  9     ecut=    48.00 Ry     beta= 0.50
     Davidson diagonalization with overlap
     ethr =  3.92E-07,  avg # of iterations =  4.0

     negative rho (up, down):  3.268E-03 3.929E-03

     total cpu time spent up to now is      361.8 secs

     total energy              =   -1133.74573994 Ry
     estimated scf accuracy    <       0.00010059 Ry

     total magnetization       =    10.00 Bohr mag/cell
     absolute magnetization    =    10.02 Bohr mag/cell

     iteration # 10     ecut=    48.00 Ry     beta= 0.50
     Davidson diagonalization with overlap
     ethr =  6.45E-08,  avg # of iterations =  4.3

     negative rho (up, down):  3.258E-03 3.952E-03

     total cpu time spent up to now is      401.1 secs

     total energy              =   -1133.74581818 Ry
     estimated scf accuracy    <       0.00002126 Ry

     total magnetization       =    10.00 Bohr mag/cell
     absolute magnetization    =    10.01 Bohr mag/cell

     iteration # 11     ecut=    48.00 Ry     beta= 0.50
     Davidson diagonalization with overlap
     ethr =  1.36E-08,  avg # of iterations =  4.0

     negative rho (up, down):  3.246E-03 3.966E-03

     total cpu time spent up to now is      434.4 secs

     total energy              =   -1133.74584457 Ry
     estimated scf accuracy    <       0.00001473 Ry

     total magnetization       =    10.00 Bohr mag/cell
     absolute magnetization    =    10.02 Bohr mag/cell

     iteration # 12     ecut=    48.00 Ry     beta= 0.50
     Davidson diagonalization with overlap
     ethr =  9.44E-09,  avg # of iterations =  3.5

     negative rho (up, down):  3.237E-03 3.966E-03

     total cpu time spent up to now is      466.1 secs

     total energy              =   -1133.74585610 Ry
     estimated scf accuracy    <       0.00000197 Ry

     total magnetization       =    10.00 Bohr mag/cell
     absolute magnetization    =    10.02 Bohr mag/cell

     iteration # 13     ecut=    48.00 Ry     beta= 0.50
     Davidson diagonalization with overlap
     ethr =  1.26E-09,  avg # of iterations =  4.1

     negative rho (up, down):  3.231E-03 3.961E-03

     total cpu time spent up to now is      500.0 secs

     total energy              =   -1133.74585952 Ry
     estimated scf accuracy    <       0.00000043 Ry

     total magnetization       =    10.00 Bohr mag/cell
     absolute magnetization    =    10.02 Bohr mag/cell

     iteration # 14     ecut=    48.00 Ry     beta= 0.50
     Davidson diagonalization with overlap
     ethr =  2.77E-10,  avg # of iterations =  5.0

     negative rho (up, down):  3.229E-03 3.959E-03
 
     Magnetic moment per site:
     atom:    1    charge:    0.8807    magn:    0.0003    constr:    0.0000
     atom:    2    charge:    0.8803    magn:    0.0001    constr:    0.0000
     atom:    3    charge:    0.8798    magn:    0.0001    constr:    0.0000
     atom:    4    charge:    0.8805    magn:    0.0001    constr:    0.0000
     atom:    5    charge:    0.8808    magn:    0.0004    constr:    0.0000
     atom:    6    charge:    0.8803    magn:    0.0001    constr:    0.0000
     atom:    7    charge:    2.8610    magn:   -0.0000    constr:    0.0000
     atom:    8    charge:    2.8609    magn:    0.0005    constr:    0.0000
     atom:    9    charge:    2.8610    magn:    0.0099    constr:    0.0000
     atom:   10    charge:    2.8609    magn:    0.0006    constr:    0.0000
     atom:   11    charge:    2.8603    magn:    0.0089    constr:    0.0000
     atom:   12    charge:    2.8610    magn:    0.0001    constr:    0.0000
     atom:   13    charge:    2.8598    magn:    0.0043    constr:    0.0000
     atom:   14    charge:    2.8599    magn:    0.0003    constr:    0.0000
     atom:   15    charge:    2.8598    magn:    0.0005    constr:    0.0000
     atom:   16    charge:    0.8800    magn:    0.0004    constr:    0.0000
     atom:   17    charge:    0.8800    magn:    0.0001    constr:    0.0000
     atom:   18    charge:    0.8799    magn:    0.0001    constr:    0.0000
     atom:   19    charge:    0.8803    magn:    0.0004    constr:    0.0000
     atom:   20    charge:    0.8801    magn:    0.0003    constr:    0.0000
     atom:   21    charge:    0.8798    magn:    0.0004    constr:    0.0000
     atom:   22    charge:    2.8611    magn:    0.0043    constr:    0.0000
     atom:   23    charge:    0.8800    magn:    0.0001    constr:    0.0000
     atom:   24    charge:    0.8797    magn:    0.0005    constr:    0.0000
     atom:   25    charge:    0.8801    magn:    0.0006    constr:    0.0000
     atom:   26    charge:    2.8598    magn:    0.0001    constr:    0.0000
     atom:   27    charge:    2.8597    magn:    0.0005    constr:    0.0000
     atom:   28    charge:    2.8597    magn:    0.0004    constr:    0.0000
     atom:   29    charge:    2.8596    magn:    0.0004    constr:    0.0000
     atom:   30    charge:    2.8597    magn:    0.0099    constr:    0.0000
     atom:   31    charge:    2.8596    magn:    0.0006    constr:    0.0000
     atom:   32    charge:    0.8804    magn:    0.0006    constr:    0.0000
     atom:   33    charge:   11.6542    magn:    3.6432    constr:    0.0000
     atom:   34    charge:   11.6540    magn:    3.6432    constr:    0.0000

     total cpu time spent up to now is      534.8 secs

     End of self-consistent calculation

 ------ SPIN UP ------------


          k = 0.1667 0.2887 0.0000 ( 59267 PWs)   bands (ev):

   -73.2276 -73.0759 -45.1940 -44.5611 -44.5394 -44.4571 -44.4351 -44.3747
   -21.2347 -20.6535 -20.6387 -20.0901 -20.0867 -19.5803 -19.5663 -19.0876
   -18.6890 -18.6750 -18.4434 -18.4410 -18.1827 -18.0755 -18.0650 -17.8379
   -12.4718 -12.1929 -12.1914 -11.8100 -11.8048 -11.6464 -11.1836 -11.1732
   -10.3797 -10.3559 -10.1090 -10.1000  -9.5788  -9.5741  -8.8333  -8.8119
    -8.8095  -8.7580  -8.7462  -8.5845  -8.1851  -8.0598  -7.9893  -7.8163
    -7.8151  -7.4287  -7.4229  -7.2662  -7.2560  -7.1977  -7.1923  -6.9471
    -6.9448  -6.5726  -6.5126  -6.1422  -6.1400  -5.8641  -5.4066  -5.2945
    -5.2603  -5.1880  -4.8980  -4.8957  -4.5007  -4.3474  -4.3310  -3.9719
    -3.6341  -3.1489  -3.1185  -2.5844  -2.0583  -2.0360  -1.5041  -1.4643
    -1.1460  -1.0969  -1.0557  -0.2969   0.5372   0.8674   1.0755   1.2478
     1.3213   1.4884   1.5428   1.5858   1.6264   1.8217

          k = 0.1667-0.4811 0.0000 ( 59291 PWs)   bands (ev):

   -73.2276 -73.0759 -45.1940 -44.5611 -44.5394 -44.4570 -44.4351 -44.3747
   -21.1039 -20.9011 -20.7102 -20.1484 -19.7924 -19.4546 -19.3055 -19.1621
   -19.0029 -18.7666 -18.6274 -18.5337 -18.1353 -18.0800 -17.9098 -17.7122
   -12.3358 -12.1010 -12.0325 -11.8950 -11.6697 -11.6454 -11.5410 -10.9304
   -10.8776 -10.6113 -10.5118  -9.8480  -9.6813  -9.3244  -9.0988  -8.6630
    -8.6106  -8.5405  -8.3775  -8.3620  -8.1491  -8.1085  -8.0517  -8.0370
    -7.6753  -7.6111  -7.4821  -7.4619  -7.3461  -7.1592  -7.0560  -6.8521
    -6.6101  -6.3811  -6.1725  -6.1460  -5.9585  -5.9172  -5.7712  -5.7398
    -5.4394  -5.3865  -5.2006  -5.0335  -4.4370  -4.3406  -4.0788  -3.7605
    -3.6330  -3.1488  -3.1175  -2.5815  -2.0582  -2.0358  -1.5054  -1.4651
    -1.1482  -1.0963  -1.0568  -0.3008   0.4569   0.8800   1.1115   1.1281
     1.2658   1.2969   1.4398   1.8585   1.9134   2.1457

          k = 0.1667-0.0962 0.0000 ( 59226 PWs)   bands (ev):

   -73.2276 -73.0759 -45.1940 -44.5610 -44.5393 -44.4571 -44.4351 -44.3747
   -21.3012 -20.5228 -20.3341 -20.3270 -19.9777 -19.9667 -19.7945 -18.7179
   -18.7089 -18.3618 -18.3582 -18.3432 -18.2547 -18.2510 -18.0669 -18.0595
   -12.4935 -12.4921 -12.3964 -11.5698 -11.5633 -11.4126 -11.4103 -10.9147
   -10.9113  -9.9172  -9.9145  -9.6637  -9.3621  -9.3606  -9.2186  -9.2162
    -9.0304  -9.0283  -8.9168  -8.3117  -8.3096  -7.8884  -7.8876  -7.8740
    -7.8328  -7.7583  -7.6026  -7.5698  -7.1333  -7.0746  -6.9468  -6.8764
    -6.8728  -6.8408  -6.5193  -6.5158  -6.2454  -5.3475  -5.3038  -5.1311
    -5.0531  -4.8016  -4.7935  -4.7435  -4.6027  -4.5945  -4.3503  -4.3194
    -3.6354  -3.1490  -3.1193  -2.5876  -2.0597  -2.0359  -1.5030  -1.4636
    -1.1439  -1.0977  -1.0548  -0.2925   0.6407   0.8191   1.0458   1.2235
     1.2666   1.3752   1.6032   1.6121   1.7660   2.0068

          k =-0.5000-0.8660 0.0000 ( 59292 PWs)   bands (ev):

   -73.2276 -73.0759 -45.1940 -44.5611 -44.5393 -44.4571 -44.4351 -44.3747
   -21.0440 -21.0278 -20.4588 -20.4510 -19.4143 -19.4059 -19.4019 -19.3989
   -18.9849 -18.9727 -18.3174 -18.3152 -18.3011 -18.2945 -17.7832 -17.7757
   -12.0617 -12.0600 -12.0476 -12.0427 -11.8679 -11.8592 -11.3218 -11.3112
   -10.2238 -10.2197 -10.1231 -10.1210 -10.1166 -10.1147  -8.6031  -8.5388
    -8.5379  -8.5282  -8.5258  -8.5152  -7.8523  -7.8501  -7.8483  -7.8452
    -7.8130  -7.8091  -7.7751  -7.7391  -7.4816  -7.4707  -6.5999  -6.5940
    -6.3461  -6.3345  -6.2932  -6.2832  -6.1806  -6.1730  -5.7086  -5.6808
    -5.5370  -5.5261  -4.7406  -4.7141  -4.6871  -4.6597  -3.8849  -3.8577
    -3.6304  -3.1488  -3.1165  -2.5809  -2.0580  -2.0366  -1.5047  -1.4638
    -1.1572  -1.0997  -1.0581  -0.3992   0.5873   0.9079   1.1096   1.1507
     1.4721   1.6075   1.6127   1.6148   1.7769   1.9679

          k =-0.1667 0.2887 0.0000 ( 59267 PWs)   bands (ev):

   -73.2276 -73.0759 -45.1940 -44.5611 -44.5394 -44.4571 -44.4351 -44.3747
   -21.2347 -20.6534 -20.6387 -20.0901 -20.0867 -19.5803 -19.5663 -19.0876
   -18.6890 -18.6751 -18.4434 -18.4410 -18.1827 -18.0755 -18.0651 -17.8379
   -12.4718 -12.1929 -12.1914 -11.8100 -11.8048 -11.6464 -11.1835 -11.1732
   -10.3797 -10.3559 -10.1090 -10.1001  -9.5788  -9.5742  -8.8333  -8.8119
    -8.8094  -8.7580  -8.7462  -8.5844  -8.1852  -8.0598  -7.9893  -7.8163
    -7.8150  -7.4287  -7.4229  -7.2662  -7.2560  -7.1976  -7.1923  -6.9472
    -6.9449  -6.5726  -6.5126  -6.1421  -6.1400  -5.8641  -5.4067  -5.2944
    -5.2604  -5.1879  -4.8980  -4.8957  -4.5007  -4.3474  -4.3311  -3.9719
    -3.6341  -3.1489  -3.1185  -2.5844  -2.0583  -2.0360  -1.5041  -1.4643
    -1.1460  -1.0969  -1.0557  -0.2969   0.5372   0.8674   1.0756   1.2478
     1.3213   1.4884   1.5428   1.5858   1.6264   1.8216

          k = 0.3333 0.0000 0.0000 ( 59267 PWs)   bands (ev):

   -73.2276 -73.0759 -45.1940 -44.5611 -44.5393 -44.4571 -44.4351 -44.3747
   -21.2344 -20.6702 -20.6219 -20.0911 -20.0844 -19.5976 -19.5505 -19.0891
   -18.6993 -18.6611 -18.4458 -18.4399 -18.1793 -18.0922 -18.0533 -17.8373
   -12.4718 -12.1930 -12.1910 -11.8154 -11.8010 -11.6445 -11.1960 -11.1617
   -10.3787 -10.3561 -10.1162 -10.0928  -9.5830  -9.5693  -8.8391  -8.8109
    -8.8033  -8.7723  -8.7323  -8.5855  -8.1862  -8.0910  -7.9578  -7.8159
    -7.8141  -7.4320  -7.4190  -7.2798  -7.2381  -7.2043  -7.1858  -6.9484
    -6.9442  -6.6057  -6.4855  -6.1440  -6.1375  -5.8701  -5.4062  -5.2946
    -5.2499  -5.1884  -4.9115  -4.8850  -4.4924  -4.3661  -4.3228  -3.9718
    -3.6327  -3.1485  -3.1178  -2.5842  -2.0594  -2.0363  -1.5032  -1.4636
    -1.1515  -1.0993  -1.0566  -0.3655   0.6354   0.8483   1.2160   1.2577
     1.3516   1.4666   1.5598   1.5819   1.6152   1.9038

          k =-0.1667-0.4811 0.0000 ( 59291 PWs)   bands (ev):

   -73.2276 -73.0759 -45.1940 -44.5611 -44.5394 -44.4570 -44.4351 -44.3747
   -21.1039 -20.9011 -20.7102 -20.1484 -19.7924 -19.4546 -19.3055 -19.1621
   -19.0029 -18.7666 -18.6274 -18.5337 -18.1353 -18.0800 -17.9098 -17.7122
   -12.3358 -12.1010 -12.0325 -11.8949 -11.6698 -11.6454 -11.5410 -10.9304
   -10.8776 -10.6113 -10.5118  -9.8479  -9.6813  -9.3245  -9.0989  -8.6630
    -8.6105  -8.5405  -8.3774  -8.3620  -8.1491  -8.1085  -8.0518  -8.0370
    -7.6753  -7.6112  -7.4821  -7.4619  -7.3461  -7.1591  -7.0560  -6.8521
    -6.6101  -6.3811  -6.1725  -6.1460  -5.9585  -5.9172  -5.7711  -5.7398
    -5.4394  -5.3865  -5.2006  -5.0335  -4.4370  -4.3406  -4.0788  -3.7605
    -3.6330  -3.1488  -3.1175  -2.5815  -2.0582  -2.0358  -1.5054  -1.4651
    -1.1482  -1.0963  -1.0568  -0.3008   0.4569   0.8800   1.1115   1.1280
     1.2658   1.2969   1.4399   1.8585   1.9134   2.1458

          k = 0.5000-0.0962 0.0000 ( 59291 PWs)   bands (ev):

   -73.2276 -73.0759 -45.1940 -44.5611 -44.5394 -44.4571 -44.4351 -44.3747
   -21.1019 -20.9065 -20.7067 -20.1470 -19.7925 -19.4562 -19.3095 -19.1586
   -19.0036 -18.7675 -18.6200 -18.5381 -18.1264 -18.0919 -17.9079 -17.7119
   -12.3353 -12.1011 -12.0311 -11.8979 -11.6782 -11.6348 -11.5428 -10.9302
   -10.8764 -10.6102 -10.5135  -9.8460  -9.6819  -9.3253  -9.0984  -8.6559
    -8.6107  -8.5392  -8.3854  -8.3787  -8.1477  -8.0945  -8.0616  -8.0284
    -7.6726  -7.6116  -7.4814  -7.4628  -7.3407  -7.1602  -7.0562  -6.8518
    -6.6102  -6.3893  -6.1845  -6.1453  -5.9482  -5.9163  -5.7707  -5.7401
    -5.4404  -5.3872  -5.1825  -5.0442  -4.4193  -4.3609  -4.0785  -3.7614
    -3.6304  -3.1488  -3.1163  -2.5810  -2.0586  -2.0365  -1.5047  -1.4639
    -1.1571  -1.0998  -1.0581  -0.3986   0.5813   0.8887   1.0927   1.2042
     1.3009   1.3458   1.6807   1.8132   1.9548   1.9906

          k =-0.3333-0.3849 0.0000 ( 59291 PWs)   bands (ev):

   -73.2276 -73.0759 -45.1940 -44.5611 -44.5394 -44.4571 -44.4351 -44.3747
   -21.1026 -20.9046 -20.7081 -20.1469 -19.7940 -19.4547 -19.3058 -19.1612
   -19.0056 -18.7662 -18.6211 -18.5374 -18.1282 -18.0898 -17.9080 -17.7120
   -12.3355 -12.1001 -12.0325 -11.8974 -11.6699 -11.6439 -11.5420 -10.9303
   -10.8758 -10.6097 -10.5143  -9.8469  -9.6820  -9.3244  -9.0989  -8.6581
    -8.6101  -8.5408  -8.3783  -8.3756  -8.1490  -8.1001  -8.0521  -8.0383
    -7.6729  -7.6104  -7.4866  -7.4583  -7.3395  -7.1604  -7.0566  -6.8586
    -6.6088  -6.3821  -6.1717  -6.1468  -5.9580  -5.9157  -5.7711  -5.7482
    -5.4401  -5.3829  -5.1830  -5.0443  -4.4222  -4.3584  -4.0780  -3.7608
    -3.6311  -3.1489  -3.1168  -2.5811  -2.0581  -2.0364  -1.5052  -1.4642
    -1.1542  -1.0986  -1.0577  -0.3690   0.5384   0.8973   1.1045   1.1660
     1.2356   1.4033   1.5772   1.8586   1.9411   1.9942

          k = 0.5000 0.0962 0.0000 ( 59291 PWs)   bands (ev):

   -73.2276 -73.0759 -45.1940 -44.5611 -44.5394 -44.4571 -44.4351 -44.3747
   -21.1019 -20.9065 -20.7067 -20.1470 -19.7925 -19.4562 -19.3095 -19.1586
   -19.0036 -18.7675 -18.6200 -18.5381 -18.1264 -18.0919 -17.9079 -17.7119
   -12.3353 -12.1012 -12.0311 -11.8979 -11.6782 -11.6348 -11.5429 -10.9302
   -10.8764 -10.6103 -10.5135  -9.8460  -9.6820  -9.3253  -9.0984  -8.6559
    -8.6107  -8.5392  -8.3854  -8.3787  -8.1477  -8.0945  -8.0615  -8.0284
    -7.6727  -7.6116  -7.4815  -7.4628  -7.3407  -7.1603  -7.0562  -6.8518
    -6.6101  -6.3893  -6.1845  -6.1452  -5.9483  -5.9163  -5.7708  -5.7402
    -5.4405  -5.3872  -5.1825  -5.0442  -4.4193  -4.3609  -4.0785  -3.7614
    -3.6304  -3.1488  -3.1163  -2.5810  -2.0586  -2.0365  -1.5047  -1.4639
    -1.1571  -1.0998  -1.0581  -0.3986   0.5813   0.8887   1.0927   1.2043
     1.3009   1.3457   1.6806   1.8129   1.9543   1.9904

          k =-0.3333 0.3849 0.0000 ( 59291 PWs)   bands (ev):

   -73.2276 -73.0759 -45.1940 -44.5611 -44.5394 -44.4571 -44.4351 -44.3747
   -21.1026 -20.9046 -20.7081 -20.1469 -19.7940 -19.4547 -19.3058 -19.1613
   -19.0056 -18.7663 -18.6211 -18.5374 -18.1282 -18.0898 -17.9080 -17.7120
   -12.3354 -12.1001 -12.0326 -11.8974 -11.6699 -11.6439 -11.5420 -10.9303
   -10.8758 -10.6097 -10.5143  -9.8470  -9.6820  -9.3243  -9.0989  -8.6581
    -8.6101  -8.5408  -8.3783  -8.3756  -8.1490  -8.1001  -8.0520  -8.0384
    -7.6728  -7.6104  -7.4867  -7.4582  -7.3395  -7.1603  -7.0567  -6.8586
    -6.6088  -6.3821  -6.1717  -6.1468  -5.9580  -5.9158  -5.7710  -5.7482
    -5.4400  -5.3829  -5.1830  -5.0443  -4.4222  -4.3584  -4.0780  -3.7608
    -3.6311  -3.1489  -3.1168  -2.5811  -2.0581  -2.0364  -1.5052  -1.4642
    -1.1542  -1.0986  -1.0577  -0.3690   0.5384   0.8973   1.1045   1.1660
     1.2356   1.4033   1.5771   1.8586   1.9411   1.9940

          k =-0.1667-0.0962 0.0000 ( 59226 PWs)   bands (ev):

   -73.2276 -73.0759 -45.1940 -44.5610 -44.5393 -44.4571 -44.4351 -44.3747
   -21.3012 -20.5228 -20.3341 -20.3270 -19.9777 -19.9667 -19.7945 -18.7179
   -18.7089 -18.3618 -18.3582 -18.3432 -18.2547 -18.2510 -18.0669 -18.0595
   -12.4935 -12.4921 -12.3963 -11.5698 -11.5633 -11.4126 -11.4103 -10.9147
   -10.9113  -9.9172  -9.9145  -9.6637  -9.3621  -9.3606  -9.2186  -9.2162
    -9.0304  -9.0283  -8.9168  -8.3118  -8.3096  -7.8884  -7.8876  -7.8740
    -7.8327  -7.7583  -7.6026  -7.5698  -7.1334  -7.0746  -6.9468  -6.8764
    -6.8727  -6.8408  -6.5192  -6.5157  -6.2455  -5.3475  -5.3038  -5.1310
    -5.0532  -4.8016  -4.7935  -4.7436  -4.6027  -4.5945  -4.3503  -4.3194
    -3.6354  -3.1490  -3.1193  -2.5876  -2.0597  -2.0359  -1.5030  -1.4636
    -1.1439  -1.0977  -1.0548  -0.2925   0.6408   0.8191   1.0458   1.2235
     1.2665   1.3752   1.6032   1.6121   1.7661   2.0068

          k =-0.0000-0.1925 0.0000 ( 59226 PWs)   bands (ev):

   -73.2276 -73.0759 -45.1940 -44.5611 -44.5393 -44.4571 -44.4351 -44.3747
   -21.3013 -20.5193 -20.3361 -20.3313 -19.9711 -19.9679 -19.7969 -18.7141
   -18.7103 -18.3724 -18.3620 -18.3434 -18.2456 -18.2444 -18.0665 -18.0632
   -12.4933 -12.4922 -12.3963 -11.5687 -11.5661 -11.4117 -11.4084 -10.9142
   -10.9132  -9.9162  -9.9151  -9.6643  -9.3643  -9.3581  -9.2179  -9.2169
    -9.0295  -9.0294  -8.9171  -8.3108  -8.3095  -7.8882  -7.8862  -7.8622
    -7.8327  -7.7593  -7.6038  -7.5943  -7.0966  -7.0914  -6.9457  -6.8757
    -6.8744  -6.8483  -6.5182  -6.5165  -6.2457  -5.3233  -5.3218  -5.1314
    -5.0528  -4.8304  -4.7944  -4.7428  -4.5865  -4.5824  -4.3394  -4.3357
    -3.6361  -3.1492  -3.1195  -2.5876  -2.0592  -2.0358  -1.5035  -1.4640
    -1.1413  -1.0966  -1.0544  -0.2517   0.5812   0.8278   0.9829   1.1934
     1.2725   1.3913   1.5990   1.6137   1.7459   1.9980

          k = 0.5000-0.8660 0.0000 ( 59292 PWs)   bands (ev):

   -73.2276 -73.0759 -45.1940 -44.5611 -44.5393 -44.4571 -44.4351 -44.3747
   -21.0440 -21.0278 -20.4588 -20.4510 -19.4143 -19.4059 -19.4019 -19.3989
   -18.9848 -18.9728 -18.3174 -18.3151 -18.3013 -18.2945 -17.7832 -17.7757
   -12.0617 -12.0600 -12.0476 -12.0428 -11.8679 -11.8592 -11.3217 -11.3112
   -10.2238 -10.2197 -10.1230 -10.1211 -10.1166 -10.1147  -8.6031  -8.5387
    -8.5378  -8.5283  -8.5259  -8.5152  -7.8523  -7.8501  -7.8482  -7.8452
    -7.8131  -7.8092  -7.7751  -7.7391  -7.4816  -7.4708  -6.5998  -6.5939
    -6.3461  -6.3345  -6.2933  -6.2831  -6.1805  -6.1730  -5.7086  -5.6808
    -5.5370  -5.5262  -4.7406  -4.7139  -4.6872  -4.6597  -3.8849  -3.8577
    -3.6304  -3.1488  -3.1165  -2.5809  -2.0580  -2.0366  -1.5047  -1.4638
    -1.1572  -1.0997  -1.0581  -0.3992   0.5873   0.9079   1.1097   1.1507
     1.4721   1.6075   1.6126   1.6147   1.7768   1.9688

          k =-1.0000 0.0000 0.0000 ( 59292 PWs)   bands (ev):

   -73.2276 -73.0759 -45.1940 -44.5611 -44.5393 -44.4570 -44.4351 -44.3747
   -21.0594 -21.0105 -20.4588 -20.4544 -19.4082 -19.4068 -19.4038 -19.3981
   -18.9977 -18.9609 -18.3458 -18.3302 -18.2784 -18.2746 -17.7816 -17.7783
   -12.0812 -12.0720 -12.0310 -12.0246 -11.8654 -11.8625 -11.3360 -11.2989
   -10.2277 -10.2253 -10.1196 -10.1196 -10.1141 -10.1134  -8.6264  -8.5557
    -8.5481  -8.5128  -8.5118  -8.4837  -7.8566  -7.8558  -7.8483  -7.8475
    -7.8049  -7.8045  -7.7662  -7.7621  -7.4973  -7.4562  -6.5974  -6.5955
    -6.3338  -6.3270  -6.2912  -6.2902  -6.1932  -6.1624  -5.7190  -5.6746
    -5.5504  -5.5125  -4.7898  -4.7365  -4.6470  -4.6333  -3.8722  -3.8682
    -3.6341  -3.1486  -3.1179  -2.5817  -2.0583  -2.0355  -1.5052  -1.4655
    -1.1451  -1.0951  -1.0562  -0.2617   0.4226   0.8718   1.0971   1.1275
     1.2093   1.5118   1.6188   1.6309   1.6478   1.9130

 ------ SPIN DOWN ----------


          k = 0.1667 0.2887 0.0000 ( 59267 PWs)   bands (ev):

   -69.1021 -68.9401 -41.2581 -40.4244 -40.3942 -40.3839 -40.3115 -40.2809
   -21.2298 -20.6467 -20.6360 -20.0852 -20.0820 -19.5735 -19.5637 -19.0826
   -18.6808 -18.6722 -18.4385 -18.4360 -18.1763 -18.0695 -18.0626 -17.8329
   -12.4688 -12.1898 -12.1880 -11.8067 -11.8025 -11.6438 -11.1794 -11.1710
   -10.3762 -10.3526 -10.1042 -10.0979  -9.5750  -9.5716  -8.8129  -8.8080
    -8.8010  -8.7537  -8.7446  -8.5815  -8.1823  -8.0272  -7.9808  -7.8133
    -7.8123  -7.4236  -7.4200  -7.2443  -7.2379  -7.1940  -7.1902  -6.9443
    -6.9418  -6.5441  -6.5052  -6.1386  -6.1373  -5.8433  -5.4029  -5.2645
    -5.2449  -5.1847  -4.8806  -4.8789  -4.4765  -4.3293  -4.3185  -3.9531
    -1.5741   0.1421   0.1887   0.2366   0.5364   1.0723   1.0980   1.2598
     1.3146   1.4249   1.4952   1.5403   1.5900   1.6170   1.7513   1.8958
     2.0693   2.1073   2.2161   2.2721   2.3288   2.3670

          k = 0.1667-0.4811 0.0000 ( 59291 PWs)   bands (ev):

   -69.1021 -68.9401 -41.2582 -40.4244 -40.3942 -40.3839 -40.3115 -40.2809
   -21.0985 -20.8969 -20.7055 -20.1435 -19.7876 -19.4497 -19.3005 -19.1572
   -18.9978 -18.7620 -18.6209 -18.5298 -18.1278 -18.0774 -17.9048 -17.7070
   -12.3327 -12.0978 -12.0297 -11.8921 -11.6667 -11.6426 -11.5380 -10.9270
   -10.8741 -10.6077 -10.5088  -9.8442  -9.6782  -9.3208  -9.0957  -8.6322
    -8.6074  -8.5369  -8.3746  -8.3460  -8.1462  -8.0901  -8.0483  -8.0348
    -7.6720  -7.6081  -7.4788  -7.4595  -7.3249  -7.1554  -7.0530  -6.8323
    -6.6062  -6.3615  -6.1505  -6.1429  -5.9420  -5.9134  -5.7679  -5.7191
    -5.4363  -5.3693  -5.1718  -5.0217  -4.4084  -4.3321  -4.0617  -3.7410
    -1.5668   0.1430   0.1934   0.2441   0.5238   0.9909   1.0469   1.1775
     1.2197   1.3478   1.4575   1.5065   1.6554   1.8187   1.8667   2.1107
     2.1446   2.1920   2.2247   2.2506   2.3328   2.3568

          k = 0.1667-0.0962 0.0000 ( 59226 PWs)   bands (ev):

   -69.1021 -68.9401 -41.2581 -40.4244 -40.3942 -40.3839 -40.3115 -40.2809
   -21.2964 -20.5174 -20.3293 -20.3231 -19.9714 -19.9628 -19.7905 -18.7113
   -18.7044 -18.3556 -18.3524 -18.3387 -18.2496 -18.2464 -18.0617 -18.0560
   -12.4906 -12.4888 -12.3932 -11.5665 -11.5610 -11.4096 -11.4070 -10.9111
   -10.9085  -9.9137  -9.9116  -9.6601  -9.3589  -9.3574  -9.2145  -9.2128
    -9.0273  -9.0253  -8.8930  -8.3077  -8.3060  -7.8853  -7.8844  -7.8463
    -7.8280  -7.7555  -7.5817  -7.5585  -7.1007  -7.0637  -6.9436  -6.8732
    -6.8702  -6.8287  -6.5158  -6.5131  -6.2424  -5.3158  -5.2897  -5.1276
    -5.0499  -4.7758  -4.7732  -4.7258  -4.5855  -4.5807  -4.3270  -4.3088
    -1.5815   0.1420   0.1832   0.2295   0.5529   0.9887   1.1134   1.2580
     1.3746   1.4321   1.5279   1.5555   1.6511   1.6972   1.8070   1.9424
     1.9967   2.0498   2.1037   2.2840   2.3139   2.3587

          k =-0.5000-0.8660 0.0000 ( 59292 PWs)   bands (ev):

   -69.1021 -68.9401 -41.2582 -40.4244 -40.3942 -40.3839 -40.3115 -40.2809
   -21.0368 -21.0252 -20.4537 -20.4471 -19.4072 -19.4008 -19.3969 -19.3958
   -18.9778 -18.9704 -18.3084 -18.3074 -18.2981 -18.2938 -17.7772 -17.7717
   -12.0563 -12.0560 -12.0457 -12.0415 -11.8646 -11.8571 -11.3175 -11.3090
   -10.2200 -10.2167 -10.1189 -10.1174 -10.1136 -10.1120  -8.5631  -8.5339
    -8.5335  -8.5261  -8.5244  -8.5076  -7.8487  -7.8467  -7.8452  -7.8425
    -7.8073  -7.8051  -7.7536  -7.7279  -7.4776  -7.4693  -6.5958  -6.5916
    -6.3136  -6.3036  -6.2792  -6.2744  -6.1761  -6.1706  -5.6863  -5.6694
    -5.5322  -5.5245  -4.7039  -4.6906  -4.6740  -4.6575  -3.8593  -3.8442
    -1.5531   0.1446   0.1896   0.2448   0.3297   1.0095   1.0599   1.2217
     1.4430   1.5045   1.5319   1.6119   1.6215   1.6726   1.8074   1.9201
     1.9522   2.2169   2.2350   2.2709   2.3098   2.3678

          k =-0.1667 0.2887 0.0000 ( 59267 PWs)   bands (ev):

   -69.1021 -68.9401 -41.2581 -40.4244 -40.3942 -40.3839 -40.3115 -40.2809
   -21.2298 -20.6467 -20.6360 -20.0852 -20.0820 -19.5734 -19.5637 -19.0826
   -18.6807 -18.6723 -18.4385 -18.4360 -18.1763 -18.0695 -18.0626 -17.8329
   -12.4688 -12.1898 -12.1880 -11.8067 -11.8025 -11.6438 -11.1793 -11.1710
   -10.3763 -10.3526 -10.1042 -10.0979  -9.5750  -9.5717  -8.8128  -8.8080
    -8.8010  -8.7537  -8.7446  -8.5815  -8.1824  -8.0272  -7.9808  -7.8133
    -7.8122  -7.4237  -7.4200  -7.2443  -7.2379  -7.1939  -7.1902  -6.9444
    -6.9419  -6.5440  -6.5052  -6.1386  -6.1373  -5.8433  -5.4030  -5.2644
    -5.2449  -5.1846  -4.8806  -4.8789  -4.4766  -4.3293  -4.3185  -3.9531
    -1.5741   0.1421   0.1887   0.2366   0.5364   1.0723   1.0980   1.2599
     1.3146   1.4249   1.4952   1.5403   1.5900   1.6170   1.7513   1.8958
     2.0693   2.1074   2.2165   2.2725   2.3309   2.3683

          k = 0.3333 0.0000 0.0000 ( 59267 PWs)   bands (ev):

   -69.1021 -68.9401 -41.2582 -40.4244 -40.3942 -40.3839 -40.3115 -40.2809
   -21.2295 -20.6629 -20.6198 -20.0864 -20.0798 -19.5900 -19.5483 -19.0838
   -18.6911 -18.6590 -18.4403 -18.4353 -18.1736 -18.0847 -18.0512 -17.8324
   -12.4688 -12.1901 -12.1873 -11.8124 -11.7982 -11.6421 -11.1913 -11.1598
   -10.3753 -10.3528 -10.1114 -10.0907  -9.5792  -9.5668  -8.8190  -8.8072
    -8.7948  -8.7677  -8.7309  -8.5824  -8.1832  -8.0547  -7.9533  -7.8130
    -7.8114  -7.4268  -7.4164  -7.2535  -7.2257  -7.2005  -7.1839  -6.9453
    -6.9413  -6.5723  -6.4809  -6.1406  -6.1349  -5.8469  -5.4025  -5.2702
    -5.2331  -5.1852  -4.8898  -4.8714  -4.4717  -4.3462  -4.3081  -3.9524
    -1.5654   0.1461   0.1848   0.2360   0.4038   0.9710   1.1560   1.3592
     1.4268   1.4805   1.5225   1.5404   1.6238   1.6335   1.6604   1.9519
     2.0220   2.1574   2.2071   2.2743   2.3493   2.4425

          k =-0.1667-0.4811 0.0000 ( 59291 PWs)   bands (ev):

   -69.1021 -68.9401 -41.2582 -40.4244 -40.3942 -40.3839 -40.3115 -40.2809
   -21.0985 -20.8969 -20.7055 -20.1435 -19.7876 -19.4497 -19.3005 -19.1572
   -18.9978 -18.7620 -18.6209 -18.5298 -18.1278 -18.0774 -17.9048 -17.7070
   -12.3327 -12.0978 -12.0297 -11.8920 -11.6667 -11.6426 -11.5380 -10.9270
   -10.8742 -10.6077 -10.5088  -9.8442  -9.6782  -9.3208  -9.0958  -8.6322
    -8.6073  -8.5370  -8.3745  -8.3460  -8.1462  -8.0901  -8.0484  -8.0348
    -7.6720  -7.6082  -7.4787  -7.4595  -7.3249  -7.1554  -7.0530  -6.8323
    -6.6062  -6.3615  -6.1505  -6.1429  -5.9420  -5.9133  -5.7679  -5.7191
    -5.4363  -5.3693  -5.1718  -5.0217  -4.4084  -4.3321  -4.0617  -3.7410
    -1.5668   0.1430   0.1934   0.2441   0.5238   0.9909   1.0469   1.1775
     1.2197   1.3478   1.4575   1.5065   1.6554   1.8188   1.8667   2.1106
     2.1446   2.1920   2.2247   2.2506   2.3332   2.3576

          k = 0.5000-0.0962 0.0000 ( 59291 PWs)   bands (ev):

   -69.1021 -68.9401 -41.2581 -40.4244 -40.3942 -40.3839 -40.3115 -40.2809
   -21.0969 -20.9014 -20.7027 -20.1424 -19.7877 -19.4510 -19.3038 -19.1544
   -18.9983 -18.7627 -18.6149 -18.5333 -18.1203 -18.0871 -17.9034 -17.7068
   -12.3322 -12.0980 -12.0283 -11.8946 -11.6745 -11.6329 -11.5396 -10.9269
   -10.8731 -10.6068 -10.5103  -9.8425  -9.6788  -9.3215  -9.0954  -8.6274
    -8.6075  -8.5359  -8.3769  -8.3607  -8.1449  -8.0808  -8.0573  -8.0268
    -7.6698  -7.6086  -7.4781  -7.4604  -7.3213  -7.1565  -7.0531  -6.8323
    -6.6062  -6.3660  -6.1589  -6.1423  -5.9352  -5.9126  -5.7676  -5.7195
    -5.4373  -5.3697  -5.1600  -5.0289  -4.3956  -4.3472  -4.0606  -3.7408
    -1.5532   0.1455   0.1882   0.2414   0.3366   1.0033   1.0080   1.1929
     1.3443   1.4521   1.4902   1.5324   1.6860   1.8359   1.9688   2.0234
     2.1180   2.1763   2.2319   2.2843   2.3236   2.3756

          k =-0.3333-0.3849 0.0000 ( 59291 PWs)   bands (ev):

   -69.1021 -68.9401 -41.2582 -40.4244 -40.3942 -40.3839 -40.3115 -40.2809
   -21.0975 -20.8998 -20.7038 -20.1423 -19.7889 -19.4498 -19.3008 -19.1565
   -19.0000 -18.7617 -18.6158 -18.5328 -18.1217 -18.0855 -17.9035 -17.7069
   -12.3324 -12.0970 -12.0297 -11.8942 -11.6670 -11.6412 -11.5388 -10.9269
   -10.8726 -10.6064 -10.5110  -9.8433  -9.6789  -9.3208  -9.0957  -8.6288
    -8.6069  -8.5372  -8.3753  -8.3553  -8.1461  -8.0845  -8.0483  -8.0360
    -7.6700  -7.6075  -7.4828  -7.4564  -7.3207  -7.1566  -7.0535  -6.8364
    -6.6049  -6.3619  -6.1506  -6.1434  -5.9412  -5.9122  -5.7679  -5.7246
    -5.4370  -5.3672  -5.1605  -5.0288  -4.3973  -4.3455  -4.0603  -3.7409
    -1.5578   0.1436   0.1908   0.2436   0.3863   0.9935   1.0548   1.2084
     1.2682   1.3568   1.4711   1.5424   1.7101   1.9409   1.9689   2.0339
     2.0848   2.1366   2.2137   2.2382   2.3386   2.3647

          k = 0.5000 0.0962 0.0000 ( 59291 PWs)   bands (ev):

   -69.1021 -68.9401 -41.2581 -40.4244 -40.3942 -40.3839 -40.3115 -40.2809
   -21.0969 -20.9014 -20.7027 -20.1424 -19.7877 -19.4510 -19.3038 -19.1544
   -18.9983 -18.7627 -18.6149 -18.5333 -18.1203 -18.0872 -17.9034 -17.7068
   -12.3322 -12.0981 -12.0283 -11.8947 -11.6745 -11.6328 -11.5396 -10.9268
   -10.8731 -10.6068 -10.5103  -9.8425  -9.6789  -9.3215  -9.0953  -8.6274
    -8.6075  -8.5360  -8.3769  -8.3607  -8.1449  -8.0808  -8.0573  -8.0268
    -7.6699  -7.6086  -7.4782  -7.4604  -7.3213  -7.1565  -7.0531  -6.8323
    -6.6062  -6.3660  -6.1589  -6.1422  -5.9353  -5.9126  -5.7677  -5.7195
    -5.4373  -5.3698  -5.1600  -5.0289  -4.3956  -4.3472  -4.0606  -3.7408
    -1.5532   0.1455   0.1882   0.2414   0.3366   1.0034   1.0080   1.1930
     1.3442   1.4521   1.4902   1.5324   1.6859   1.8358   1.9689   2.0234
     2.1181   2.1763   2.2319   2.2842   2.3236   2.3757

          k =-0.3333 0.3849 0.0000 ( 59291 PWs)   bands (ev):

   -69.1021 -68.9401 -41.2582 -40.4244 -40.3942 -40.3839 -40.3115 -40.2809
   -21.0975 -20.8998 -20.7038 -20.1422 -19.7889 -19.4498 -19.3008 -19.1565
   -19.0000 -18.7617 -18.6158 -18.5328 -18.1217 -18.0854 -17.9035 -17.7069
   -12.3324 -12.0970 -12.0297 -11.8942 -11.6670 -11.6413 -11.5388 -10.9269
   -10.8725 -10.6063 -10.5110  -9.8433  -9.6789  -9.3208  -9.0957  -8.6288
    -8.6070  -8.5371  -8.3753  -8.3553  -8.1462  -8.0845  -8.0483  -8.0360
    -7.6700  -7.6075  -7.4828  -7.4563  -7.3208  -7.1566  -7.0535  -6.8364
    -6.6050  -6.3619  -6.1506  -6.1434  -5.9412  -5.9123  -5.7678  -5.7246
    -5.4369  -5.3672  -5.1606  -5.0288  -4.3974  -4.3455  -4.0603  -3.7409
    -1.5578   0.1436   0.1908   0.2436   0.3862   0.9935   1.0548   1.2084
     1.2682   1.3568   1.4711   1.5424   1.7101   1.9409   1.9689   2.0339
     2.0848   2.1367   2.2138   2.2381   2.3389   2.3650

          k =-0.1667-0.0962 0.0000 ( 59226 PWs)   bands (ev):

   -69.1021 -68.9401 -41.2581 -40.4244 -40.3942 -40.3839 -40.3115 -40.2809
   -21.2964 -20.5174 -20.3293 -20.3231 -19.9714 -19.9628 -19.7905 -18.7113
   -18.7044 -18.3556 -18.3524 -18.3387 -18.2496 -18.2465 -18.0617 -18.0560
   -12.4906 -12.4888 -12.3932 -11.5665 -11.5609 -11.4096 -11.4071 -10.9111
   -10.9085  -9.9137  -9.9116  -9.6601  -9.3589  -9.3574  -9.2145  -9.2129
    -9.0273  -9.0253  -8.8930  -8.3077  -8.3060  -7.8853  -7.8843  -7.8463
    -7.8279  -7.7556  -7.5817  -7.5585  -7.1007  -7.0637  -6.9437  -6.8732
    -6.8702  -6.8287  -6.5158  -6.5131  -6.2425  -5.3159  -5.2897  -5.1275
    -5.0500  -4.7758  -4.7732  -4.7258  -4.5855  -4.5807  -4.3271  -4.3088
    -1.5815   0.1420   0.1832   0.2295   0.5529   0.9887   1.1134   1.2580
     1.3746   1.4321   1.5279   1.5555   1.6512   1.6972   1.8071   1.9424
     1.9968   2.0498   2.1035   2.2840   2.3142   2.3597

          k =-0.0000-0.1925 0.0000 ( 59226 PWs)   bands (ev):

   -69.1021 -68.9401 -41.2581 -40.4244 -40.3942 -40.3839 -40.3115 -40.2809
   -21.2964 -20.5145 -20.3308 -20.3267 -19.9665 -19.9634 -19.7925 -18.7086
   -18.7051 -18.3643 -18.3558 -18.3383 -18.2424 -18.2412 -18.0618 -18.0586
   -12.4908 -12.4886 -12.3932 -11.5657 -11.5632 -11.4091 -11.4051 -10.9109
   -10.9100  -9.9133  -9.9116  -9.6606  -9.3607  -9.3554  -9.2142  -9.2132
    -9.0265  -9.0262  -8.8933  -8.3071  -8.3057  -7.8852  -7.8836  -7.8397
    -7.8261  -7.7563  -7.5821  -7.5749  -7.0756  -7.0755  -6.9427  -6.8728
    -6.8716  -6.8341  -6.5152  -6.5136  -6.2426  -5.3020  -5.2994  -5.1280
    -5.0495  -4.7969  -4.7711  -4.7253  -4.5766  -4.5713  -4.3210  -4.3187
    -1.5857   0.1399   0.1847   0.2292   0.6492   1.0545   1.0987   1.1546
     1.3024   1.4372   1.5348   1.5441   1.5887   1.6949   1.8049   1.9102
     1.9961   2.0595   2.1261   2.2628   2.3215   2.3606

          k = 0.5000-0.8660 0.0000 ( 59292 PWs)   bands (ev):

   -69.1021 -68.9401 -41.2582 -40.4244 -40.3942 -40.3839 -40.3115 -40.2809
   -21.0368 -21.0252 -20.4537 -20.4471 -19.4072 -19.4008 -19.3969 -19.3958
   -18.9778 -18.9705 -18.3084 -18.3074 -18.2982 -18.2938 -17.7772 -17.7717
   -12.0563 -12.0560 -12.0458 -12.0416 -11.8646 -11.8571 -11.3175 -11.3090
   -10.2200 -10.2167 -10.1189 -10.1174 -10.1136 -10.1120  -8.5631  -8.5338
    -8.5334  -8.5262  -8.5244  -8.5076  -7.8487  -7.8467  -7.8452  -7.8425
    -7.8074  -7.8052  -7.7536  -7.7279  -7.4776  -7.4693  -6.5957  -6.5915
    -6.3136  -6.3036  -6.2792  -6.2744  -6.1759  -6.1706  -5.6863  -5.6695
    -5.5323  -5.5246  -4.7039  -4.6905  -4.6741  -4.6575  -3.8594  -3.8442
    -1.5531   0.1446   0.1896   0.2448   0.3297   1.0095   1.0599   1.2217
     1.4430   1.5045   1.5319   1.6118   1.6215   1.6726   1.8074   1.9201
     1.9523   2.2170   2.2349   2.2710   2.3097   2.3678

          k =-1.0000 0.0000 0.0000 ( 59292 PWs)   bands (ev):

   -69.1021 -68.9401 -41.2582 -40.4244 -40.3942 -40.3839 -40.3115 -40.2809
   -21.0520 -21.0084 -20.4537 -20.4499 -19.4032 -19.4019 -19.3989 -19.3934
   -18.9902 -18.9588 -18.3354 -18.3217 -18.2774 -18.2738 -17.7765 -17.7732
   -12.0772 -12.0662 -12.0298 -12.0235 -11.8627 -11.8598 -11.3313 -11.2970
   -10.2241 -10.2210 -10.1159 -10.1158 -10.1114 -10.1111  -8.5857  -8.5508
    -8.5437  -8.5118  -8.5102  -8.4793  -7.8526  -7.8525  -7.8449  -7.8445
    -7.8009  -7.8002  -7.7475  -7.7429  -7.4927  -7.4550  -6.5944  -6.5923
    -6.3036  -6.3030  -6.2788  -6.2760  -6.1885  -6.1601  -5.6976  -5.6607
    -5.5452  -5.5113  -4.7483  -4.7054  -4.6435  -4.6315  -3.8533  -3.8506
    -1.5712   0.1437   0.1950   0.2454   0.6128   0.9890   1.0584   1.1397
     1.3879   1.4139   1.4578   1.4901   1.6317   1.6450   1.7032   1.8013
     2.0878   2.2480   2.2654   2.2677   2.3158   2.3625

     the Fermi energy is    -0.5134 ev

!    total energy              =   -1133.74586065 Ry

     total all-electron energy =     -6753.421564 Ry
     estimated scf accuracy    <       0.00000008 Ry
     smearing contrib. (-TS)   =      -0.00000000 Ry
     internal energy E=F+TS    =   -1133.74586065 Ry

     The total energy is F=E-TS. E is the sum of the following terms:
     one-electron contribution =   -3990.30756780 Ry
     hartree contribution      =    2023.15465395 Ry
     xc contribution           =    -186.13069249 Ry
     ewald contribution        =    1378.91619624 Ry
     DFT-D3 Dispersion         =      -0.12153360 Ry
     one-center paw contrib.   =    -359.25691696 Ry

     total magnetization       =    10.00 Bohr mag/cell
     absolute magnetization    =    10.02 Bohr mag/cell

     convergence has been achieved in  14 iterations

     Writing output data file ./mytmp/Crdimer0.11-0.2.save/
 
     init_run     :     18.40s CPU     19.30s WALL (       1 calls)
     electrons    :    482.71s CPU    515.32s WALL (       1 calls)

     Called by init_run:
     wfcinit      :     13.63s CPU     14.13s WALL (       1 calls)
     potinit      :      1.48s CPU      1.55s WALL (       1 calls)
     hinit0       :      1.55s CPU      1.62s WALL (       1 calls)

     Called by electrons:
     c_bands      :    385.33s CPU    409.51s WALL (      14 calls)
     sum_band     :     75.32s CPU     80.42s WALL (      14 calls)
     v_of_rho     :      4.59s CPU      4.93s WALL (      15 calls)
     newd         :      9.45s CPU     12.47s WALL (      15 calls)
     PAW_pot      :      7.37s CPU      7.46s WALL (      15 calls)
     mix_rho      :      0.99s CPU      1.00s WALL (      14 calls)

     Called by c_bands:
     init_us_2    :      5.05s CPU      5.11s WALL (     870 calls)
     cegterg      :    372.91s CPU    397.00s WALL (     420 calls)

     Called by *egterg:
     cdiaghg      :     25.10s CPU     39.72s WALL (    2756 calls)
     h_psi        :    240.21s CPU    248.79s WALL (    2786 calls)
     s_psi        :     27.16s CPU     27.25s WALL (    2786 calls)
     g_psi        :      0.69s CPU      0.71s WALL (    2336 calls)

     Called by h_psi:
     h_psi:calbec :     27.81s CPU     28.37s WALL (    2786 calls)
     vloc_psi     :    182.82s CPU    190.70s WALL (    2786 calls)
     add_vuspsi   :     27.47s CPU     27.59s WALL (    2786 calls)

     General routines
     calbec       :     37.15s CPU     37.88s WALL (    3206 calls)
     fft          :      4.18s CPU      4.85s WALL (     369 calls)
     ffts         :      0.11s CPU      0.12s WALL (      58 calls)
     fftw         :    188.54s CPU    196.52s WALL (  247116 calls)
     interpolate  :      0.41s CPU      0.44s WALL (      30 calls)
 
     Parallel routines
     fft_scatt_xy :     30.19s CPU     31.29s WALL (  247543 calls)
     fft_scatt_yz :     74.21s CPU     78.44s WALL (  247543 calls)
 
     PWSCF        :   8m23.14s CPU   8m58.67s WALL

 
   This run was terminated on:  11:29:48  31Mar2021            

=------------------------------------------------------------------------------=
   JOB DONE.
=------------------------------------------------------------------------------=
