
     Program PWSCF v.6.7MaX starts on 31Mar2021 at 15:16:32 

     This program is part of the open-source Quantum ESPRESSO suite
     for quantum simulation of materials; please cite
         "P. Giannozzi et al., J. Phys.:Condens. Matter 21 395502 (2009);
         "P. Giannozzi et al., J. Phys.:Condens. Matter 29 465901 (2017);
          URL http://www.quantum-espresso.org", 
     in publications or presentations arising from this work. More details at
     http://www.quantum-espresso.org/quote

     Parallel version (MPI), running on    48 processors

     MPI processes distributed on     1 nodes
     R & G space division:  proc/nbgrp/npool/nimage =      48
     Reading input from Crdimer0.15-0.2.scf.in

     Current dimensions of program PWSCF are:
     Max number of different atomic species (ntypx) = 10
     Max number of k-points (npk) =  40000
     Max angular momentum in pseudopotentials (lmaxx) =  3
     file N.pbe-n-kjpaw_psl.1.0.0.UPF: wavefunction(s)  2S renormalized
     file Cr.pbe-spn-kjpaw_psl.1.0.0.UPF: wavefunction(s)  3S 3P 3D renormalized
     file Cr.pbe-spn-kjpaw_psl.1.0.0.UPF: wavefunction(s)  3S 3P 3D renormalized

     --------------------------------------------
     Parameters for DFT-D3 Dispersion Correction:
     --------------------------------------------
       Reference C6 values for interpolation: 

         atom   Coordination number   C6
         B          0.000           214.36
         B          0.971           150.74
         B          1.944           106.23
         B          2.913            62.89
         B          4.586            56.06
         N          0.000            50.54
         N          0.994            44.25
         N          2.014            39.35
         N          2.990            31.16
         Cr1        0.000          1381.48
         Cr1        1.827           571.38
         Cr1       10.619           306.69
         Cr2        0.000          1381.48
         Cr2        1.827           571.38
         Cr2       10.619           306.69

       Values used:

         atom   Coordination number  R0_AB[au]  C6      C8
         B          3.339            3.039     62.89   2505.92
         B          3.335            3.039     62.89   2506.01
         B          3.342            3.039     62.89   2505.83
         B          3.336            3.039     62.89   2506.00
         B          3.378            3.039     62.86   2504.79
         B          3.335            3.039     62.89   2506.00
         N          3.134            2.478     31.22    688.69
         N          3.135            2.478     31.22    688.69
         N          3.152            2.478     31.21    688.54
         N          3.136            2.478     31.22    688.68
         N          3.144            2.478     31.21    688.61
         N          3.134            2.478     31.22    688.70
         N          3.143            2.478     31.21    688.62
         N          3.134            2.478     31.22    688.70
         N          3.135            2.478     31.22    688.69
         B          3.337            3.039     62.89   2505.97
         B          3.335            3.039     62.89   2506.01
         B          3.335            3.039     62.89   2506.00
         B          3.378            3.039     62.86   2504.79
         B          3.339            3.039     62.89   2505.92
         B          3.337            3.039     62.89   2505.97
         N          3.143            2.478     31.21    688.62
         B          3.335            3.039     62.89   2506.01
         B          3.337            3.039     62.89   2505.96
         B          3.341            3.039     62.89   2505.86
         N          3.134            2.478     31.22    688.70
         N          3.135            2.478     31.22    688.69
         N          3.134            2.478     31.22    688.69
         N          3.134            2.478     31.22    688.69
         N          3.152            2.478     31.21    688.54
         N          3.136            2.478     31.22    688.68
         B          3.341            3.039     62.89   2505.86
         Cr1        0.507            3.252   1378.73 127241.51
         Cr2        0.507            3.252   1378.73 127241.51

         Molecular C6 ( Ry / a.u.^6 ) =     79133.03


     Subspace diagonalization in iterative solution of the eigenvalue problem:
     one sub-group per band group will be used
     scalapack distributed-memory algorithm (size of sub-group:  6*  6 procs)

 
     Parallelization info
     --------------------
     sticks:   dense  smooth     PW     G-vecs:    dense   smooth      PW
     Min         235      98     26                36277     9874    1408
     Max         236      99     27                36282     9883    1425
     Sum       11311    4741   1285              1741401   474235   68095
 


     bravais-lattice index     =            4
     lattice parameter (alat)  =      18.9275  a.u.
     unit-cell volume          =   10553.3021 (a.u.)^3
     number of atoms/cell      =           34
     number of atomic types    =            4
     number of electrons       =       156.00
     number of Kohn-Sham states=           94
     kinetic-energy cutoff     =      48.0000  Ry
     charge density cutoff     =     457.0000  Ry
     scf convergence threshold =      1.0E-07
     mixing beta               =       0.5000
     number of iterations used =            8  plain     mixing
     Exchange-correlation= SLA  PW   PBX  PBC
                           (   1   4   3   4   0   0   0)

     celldm(1)=  18.927497  celldm(2)=   0.000000  celldm(3)=   1.797125
     celldm(4)=   0.000000  celldm(5)=   0.000000  celldm(6)=   0.000000

     crystal axes: (cart. coord. in units of alat)
               a(1) = (   1.000000   0.000000   0.000000 )  
               a(2) = (  -0.500000   0.866025   0.000000 )  
               a(3) = (   0.000000   0.000000   1.797125 )  

     reciprocal axes: (cart. coord. in units 2 pi/alat)
               b(1) = (  1.000000  0.577350  0.000000 )  
               b(2) = (  0.000000  1.154701  0.000000 )  
               b(3) = (  0.000000  0.000000  0.556444 )  


     PseudoPot. # 1 for B  read from file:
     /home/sf05/q-e-qe-6.7MaX-Release/pseudo/B.pbe-n-kjpaw_psl.1.0.0.UPF
     MD5 check sum: d9c678ba5d3b2fd7b74e61139c9288d8
     Pseudo is Projector augmented-wave + core cor, Zval =  3.0
     Generated using "atomic" code by A. Dal Corso  v.5.1.2
     Shape of augmentation charge: PSQ
     Using radial grid of 1059 points,  4 beta functions with: 
                l(1) =   0
                l(2) =   0
                l(3) =   1
                l(4) =   1
     Q(r) pseudized with 0 coefficients 


     PseudoPot. # 2 for N  read from file:
     /home/sf05/q-e-qe-6.7MaX-Release/pseudo/N.pbe-n-kjpaw_psl.1.0.0.UPF
     MD5 check sum: e0e4e94a9c4025c5b51bd7d8793849bd
     Pseudo is Projector augmented-wave + core cor, Zval =  5.0
     Generated using "atomic" code by A. Dal Corso  v.5.1.2
     Shape of augmentation charge: PSQ
     Using radial grid of 1085 points,  4 beta functions with: 
                l(1) =   0
                l(2) =   0
                l(3) =   1
                l(4) =   1
     Q(r) pseudized with 0 coefficients 


     PseudoPot. # 3 for Cr read from file:
     /home/sf05/q-e-qe-6.7MaX-Release/pseudo/Cr.pbe-spn-kjpaw_psl.1.0.0.UPF
     MD5 check sum: 198f1a2427a48552563eee314eba32ba
     Pseudo is Projector augmented-wave + core cor, Zval = 14.0
     Generated using &quot;atomic&quot; code by A. Dal Corso  v.6.3
     Shape of augmentation charge: PSQ
     Using radial grid of 1183 points,  6 beta functions with: 
                l(1) =   0
                l(2) =   0
                l(3) =   1
                l(4) =   1
                l(5) =   2
                l(6) =   2
     Q(r) pseudized with 0 coefficients 


     PseudoPot. # 4 for Cr read from file:
     /home/sf05/q-e-qe-6.7MaX-Release/pseudo/Cr.pbe-spn-kjpaw_psl.1.0.0.UPF
     MD5 check sum: 198f1a2427a48552563eee314eba32ba
     Pseudo is Projector augmented-wave + core cor, Zval = 14.0
     Generated using &quot;atomic&quot; code by A. Dal Corso  v.6.3
     Shape of augmentation charge: PSQ
     Using radial grid of 1183 points,  6 beta functions with: 
                l(1) =   0
                l(2) =   0
                l(3) =   1
                l(4) =   1
                l(5) =   2
                l(6) =   2
     Q(r) pseudized with 0 coefficients 


     atomic species   valence    mass     pseudopotential
        B              3.00    10.81100     B ( 1.00)
        N              5.00    14.00674     N ( 1.00)
        Cr1           14.00    51.99610     Cr( 1.00)
        Cr2           14.00    51.99610     Cr( 1.00)

     Starting magnetic structure 
     atomic species   magnetization
        B            0.000
        N            0.000
        Cr1          1.000
        Cr2          1.000

     No symmetry found



   Cartesian axes

     site n.     atom                  positions (alat units)
         1           B   tau(   1) = (  -0.1250000   0.2165064   0.8985623  )
         2           B   tau(   2) = (   0.3750000   0.6495191   0.8985623  )
         3           B   tau(   3) = (   0.2500000   0.0000000   0.8985623  )
         4           B   tau(   4) = (   0.7500000   0.0000000   0.8985623  )
         5           B   tau(   5) = (   0.1250000   0.2165064   0.8985623  )
         6           B   tau(   6) = (  -0.3750000   0.6495191   0.8985623  )
         7           N   tau(   7) = (   0.7500005   0.2886748   0.8985623  )
         8           N   tau(   8) = (   0.3750005   0.5051812   0.8985623  )
         9           N   tau(   9) = (   0.3750005   0.0721685   0.8985623  )
        10           N   tau(  10) = (   0.6250005   0.0721685   0.8985623  )
        11           N   tau(  11) = (   0.2500005   0.2886748   0.8985623  )
        12           N   tau(  12) = (   0.6250005   0.5051812   0.8985623  )
        13           N   tau(  13) = (   0.0000005   0.2886748   0.8985623  )
        14           N   tau(  14) = (   0.2500005   0.7216875   0.8985623  )
        15           N   tau(  15) = (  -0.2499995   0.7216875   0.8985623  )
        16           B   tau(  16) = (   0.0000000   0.4330127   0.8985623  )
        17           B   tau(  17) = (   0.1250000   0.6495191   0.8985623  )
        18           B   tau(  18) = (  -0.1250000   0.6495191   0.8985623  )
        19           B   tau(  19) = (   0.3750000   0.2165064   0.8985623  )
        20           B   tau(  20) = (   0.6250000   0.2165064   0.8985623  )
        21           B   tau(  21) = (   0.5000000   0.4330127   0.8985623  )
        22           N   tau(  22) = (   0.5000005   0.2886748   0.8985623  )
        23           B   tau(  23) = (  -0.2500000   0.4330127   0.8985623  )
        24           B   tau(  24) = (   0.2500000   0.4330127   0.8985623  )
        25           B   tau(  25) = (   0.5000000   0.0000000   0.8985623  )
        26           N   tau(  26) = (  -0.1249995   0.5051812   0.8985623  )
        27           N   tau(  27) = (   0.1250005   0.5051812   0.8985623  )
        28           N   tau(  28) = (   0.0000005   0.7216875   0.8985623  )
        29           N   tau(  29) = (   0.5000005   0.7216875   0.8985623  )
        30           N   tau(  30) = (   0.1250005   0.0721685   0.8985623  )
        31           N   tau(  31) = (   0.8750005   0.0721685   0.8985623  )
        32           B   tau(  32) = (   0.0000000   0.0000000   0.8985623  )
        33           Cr1 tau(  33) = (   0.4000000   0.1732051   1.2040735  )
        34           Cr2 tau(  34) = (   0.1000000   0.1732051   1.2040735  )

     number of k points=    15  Gaussian smearing, width (Ry)=  0.0000
                       cart. coord. in units 2pi/alat
        k(    1) = (   0.1666667   0.2886751   0.0000000), wk =   0.0740741
        k(    2) = (   0.1666667  -0.4811252   0.0000000), wk =   0.0740741
        k(    3) = (   0.1666667  -0.0962250   0.0000000), wk =   0.0740741
        k(    4) = (  -0.5000000  -0.8660254   0.0000000), wk =   0.0370370
        k(    5) = (  -0.1666667   0.2886751   0.0000000), wk =   0.0740741
        k(    6) = (   0.3333333   0.0000000   0.0000000), wk =   0.0740741
        k(    7) = (  -0.1666667  -0.4811252   0.0000000), wk =   0.0740741
        k(    8) = (   0.5000000  -0.0962250   0.0000000), wk =   0.0740741
        k(    9) = (  -0.3333333  -0.3849002   0.0000000), wk =   0.0740741
        k(   10) = (   0.5000000   0.0962250   0.0000000), wk =   0.0740741
        k(   11) = (  -0.3333333   0.3849002   0.0000000), wk =   0.0740741
        k(   12) = (  -0.1666667  -0.0962250   0.0000000), wk =   0.0740741
        k(   13) = (  -0.0000000  -0.1924501   0.0000000), wk =   0.0740741
        k(   14) = (   0.5000000  -0.8660254   0.0000000), wk =   0.0370370
        k(   15) = (  -1.0000000   0.0000000   0.0000000), wk =   0.0370370

     Dense  grid:  1741401 G-vectors     FFT dimensions: ( 135, 135, 240)

     Smooth grid:   474235 G-vectors     FFT dimensions: (  90,  90, 160)

     Estimated max dynamical RAM per process >     218.62 MB

     Estimated total dynamical RAM >      10.25 GB
     Generating pointlists ...
     new r_m :   0.0595 (alat units)  1.1269 (a.u.) for type    1
     new r_m :   0.0595 (alat units)  1.1269 (a.u.) for type    2
     new r_m :   0.1238 (alat units)  2.3423 (a.u.) for type    3
     new r_m :   0.1238 (alat units)  2.3423 (a.u.) for type    4

     Initial potential from superposition of free atoms

     starting charge  155.99382, renormalised to  156.00000

     negative rho (up, down):  6.688E-03 4.655E-04
     Starting wfcs are  148 randomized atomic wfcs
     Checking if some PAW data can be deallocated... 

     total cpu time spent up to now is       20.7 secs

     Self-consistent Calculation

     iteration #  1     ecut=    48.00 Ry     beta= 0.50
     Davidson diagonalization with overlap
     ethr =  1.00E-02,  avg # of iterations =  2.9

     negative rho (up, down):  4.871E-03 2.921E-03

     total cpu time spent up to now is       65.3 secs

     total energy              =   -1130.74122597 Ry
     estimated scf accuracy    <      11.37815778 Ry

     total magnetization       =    12.00 Bohr mag/cell
     absolute magnetization    =    12.13 Bohr mag/cell

     iteration #  2     ecut=    48.00 Ry     beta= 0.50
     Davidson diagonalization with overlap
     ethr =  7.29E-03,  avg # of iterations =  2.8

     negative rho (up, down):  8.610E-03 7.867E-03

     total cpu time spent up to now is      107.2 secs

     total energy              =   -1132.92324814 Ry
     estimated scf accuracy    <       3.77492893 Ry

     total magnetization       =    10.00 Bohr mag/cell
     absolute magnetization    =    10.09 Bohr mag/cell

     iteration #  3     ecut=    48.00 Ry     beta= 0.50
     Davidson diagonalization with overlap
     ethr =  2.42E-03,  avg # of iterations =  7.0

     negative rho (up, down):  4.014E-03 4.038E-03

     total cpu time spent up to now is      149.1 secs

     total energy              =   -1133.57119868 Ry
     estimated scf accuracy    <       0.83738282 Ry

     total magnetization       =    12.00 Bohr mag/cell
     absolute magnetization    =    12.06 Bohr mag/cell

     iteration #  4     ecut=    48.00 Ry     beta= 0.50
     Davidson diagonalization with overlap
     ethr =  5.37E-04,  avg # of iterations =  6.3

     negative rho (up, down):  6.340E-03 7.064E-03

     total cpu time spent up to now is      189.2 secs

     total energy              =   -1133.77416315 Ry
     estimated scf accuracy    <       0.46608898 Ry

     total magnetization       =    10.00 Bohr mag/cell
     absolute magnetization    =    10.02 Bohr mag/cell

     iteration #  5     ecut=    48.00 Ry     beta= 0.50
     Davidson diagonalization with overlap
     ethr =  2.99E-04,  avg # of iterations =  6.6

     negative rho (up, down):  4.367E-03 4.819E-03

     total cpu time spent up to now is      231.7 secs

     total energy              =   -1133.80432101 Ry
     estimated scf accuracy    <       0.03900710 Ry

     total magnetization       =    10.74 Bohr mag/cell
     absolute magnetization    =    10.75 Bohr mag/cell

     iteration #  6     ecut=    48.00 Ry     beta= 0.50
     Davidson diagonalization with overlap
     c_bands:  1 eigenvalues not converged
     ethr =  2.50E-05,  avg # of iterations = 10.8

     negative rho (up, down):  3.914E-03 3.923E-03

     total cpu time spent up to now is      284.7 secs

     total energy              =   -1133.81269337 Ry
     estimated scf accuracy    <       0.04730447 Ry

     total magnetization       =    10.00 Bohr mag/cell
     absolute magnetization    =    10.02 Bohr mag/cell

     iteration #  7     ecut=    48.00 Ry     beta= 0.50
     Davidson diagonalization with overlap
     ethr =  2.50E-05,  avg # of iterations =  6.0

     negative rho (up, down):  3.464E-03 3.770E-03

     total cpu time spent up to now is      325.1 secs

     total energy              =   -1133.81989116 Ry
     estimated scf accuracy    <       0.00653843 Ry

     total magnetization       =    10.00 Bohr mag/cell
     absolute magnetization    =    10.02 Bohr mag/cell

     iteration #  8     ecut=    48.00 Ry     beta= 0.50
     Davidson diagonalization with overlap
     c_bands:  1 eigenvalues not converged
     ethr =  4.19E-06,  avg # of iterations =  6.2

     negative rho (up, down):  3.192E-03 3.704E-03

     total cpu time spent up to now is      364.0 secs

     total energy              =   -1133.82194442 Ry
     estimated scf accuracy    <       0.00137088 Ry

     total magnetization       =    10.00 Bohr mag/cell
     absolute magnetization    =    10.02 Bohr mag/cell

     iteration #  9     ecut=    48.00 Ry     beta= 0.50
     Davidson diagonalization with overlap
     ethr =  8.79E-07,  avg # of iterations =  8.1

     negative rho (up, down):  3.134E-03 3.690E-03

     total cpu time spent up to now is      406.6 secs

     total energy              =   -1133.82259986 Ry
     estimated scf accuracy    <       0.00022657 Ry

     total magnetization       =    10.00 Bohr mag/cell
     absolute magnetization    =    10.01 Bohr mag/cell

     iteration # 10     ecut=    48.00 Ry     beta= 0.50
     Davidson diagonalization with overlap
     ethr =  1.45E-07,  avg # of iterations =  3.9

     negative rho (up, down):  3.131E-03 3.699E-03

     total cpu time spent up to now is      444.5 secs

     total energy              =   -1133.82278346 Ry
     estimated scf accuracy    <       0.00005813 Ry

     total magnetization       =    10.00 Bohr mag/cell
     absolute magnetization    =    10.01 Bohr mag/cell

     iteration # 11     ecut=    48.00 Ry     beta= 0.50
     Davidson diagonalization with overlap
     ethr =  3.73E-08,  avg # of iterations =  4.6

     negative rho (up, down):  3.128E-03 3.715E-03

     total cpu time spent up to now is      481.4 secs

     total energy              =   -1133.82283207 Ry
     estimated scf accuracy    <       0.00000807 Ry

     total magnetization       =    10.00 Bohr mag/cell
     absolute magnetization    =    10.01 Bohr mag/cell

     iteration # 12     ecut=    48.00 Ry     beta= 0.50
     Davidson diagonalization with overlap
     ethr =  5.17E-09,  avg # of iterations =  4.8

     negative rho (up, down):  3.119E-03 3.729E-03

     total cpu time spent up to now is      520.8 secs

     total energy              =   -1133.82284617 Ry
     estimated scf accuracy    <       0.00000284 Ry

     total magnetization       =    10.00 Bohr mag/cell
     absolute magnetization    =    10.01 Bohr mag/cell

     iteration # 13     ecut=    48.00 Ry     beta= 0.50
     Davidson diagonalization with overlap
     ethr =  1.82E-09,  avg # of iterations =  4.7

     negative rho (up, down):  3.113E-03 3.736E-03

     total cpu time spent up to now is      558.1 secs

     total energy              =   -1133.82285090 Ry
     estimated scf accuracy    <       0.00000055 Ry

     total magnetization       =    10.00 Bohr mag/cell
     absolute magnetization    =    10.01 Bohr mag/cell

     iteration # 14     ecut=    48.00 Ry     beta= 0.50
     Davidson diagonalization with overlap
     ethr =  3.50E-10,  avg # of iterations =  4.8

     negative rho (up, down):  3.112E-03 3.742E-03

     total cpu time spent up to now is      596.9 secs

     total energy              =   -1133.82285205 Ry
     estimated scf accuracy    <       0.00000040 Ry

     total magnetization       =    10.00 Bohr mag/cell
     absolute magnetization    =    10.01 Bohr mag/cell

     iteration # 15     ecut=    48.00 Ry     beta= 0.50
     Davidson diagonalization with overlap
     ethr =  2.56E-10,  avg # of iterations =  4.7

     negative rho (up, down):  3.111E-03 3.743E-03
 
     Magnetic moment per site:
     atom:    1    charge:    0.8809    magn:    0.0003    constr:    0.0000
     atom:    2    charge:    0.8803    magn:    0.0001    constr:    0.0000
     atom:    3    charge:    0.8795    magn:    0.0009    constr:    0.0000
     atom:    4    charge:    0.8806    magn:    0.0002    constr:    0.0000
     atom:    5    charge:    0.8805    magn:    0.0002    constr:    0.0000
     atom:    6    charge:    0.8802    magn:    0.0001    constr:    0.0000
     atom:    7    charge:    2.8611    magn:    0.0001    constr:    0.0000
     atom:    8    charge:    2.8608    magn:    0.0005    constr:    0.0000
     atom:    9    charge:    2.8607    magn:    0.0068    constr:    0.0000
     atom:   10    charge:    2.8609    magn:    0.0013    constr:    0.0000
     atom:   11    charge:    2.8604    magn:    0.0055    constr:    0.0000
     atom:   12    charge:    2.8610    magn:    0.0001    constr:    0.0000
     atom:   13    charge:    2.8597    magn:    0.0044    constr:    0.0000
     atom:   14    charge:    2.8599    magn:    0.0003    constr:    0.0000
     atom:   15    charge:    2.8598    magn:    0.0004    constr:    0.0000
     atom:   16    charge:    0.8800    magn:    0.0005    constr:    0.0000
     atom:   17    charge:    0.8800    magn:    0.0001    constr:    0.0000
     atom:   18    charge:    0.8799    magn:    0.0001    constr:    0.0000
     atom:   19    charge:    0.8800    magn:    0.0002    constr:    0.0000
     atom:   20    charge:    0.8804    magn:    0.0003    constr:    0.0000
     atom:   21    charge:    0.8798    magn:    0.0005    constr:    0.0000
     atom:   22    charge:    2.8610    magn:    0.0044    constr:    0.0000
     atom:   23    charge:    0.8801    magn:    0.0002    constr:    0.0000
     atom:   24    charge:    0.8796    magn:    0.0003    constr:    0.0000
     atom:   25    charge:    0.8801    magn:    0.0003    constr:    0.0000
     atom:   26    charge:    2.8598    magn:    0.0001    constr:    0.0000
     atom:   27    charge:    2.8597    magn:    0.0005    constr:    0.0000
     atom:   28    charge:    2.8598    magn:    0.0005    constr:    0.0000
     atom:   29    charge:    2.8596    magn:    0.0005    constr:    0.0000
     atom:   30    charge:    2.8593    magn:    0.0068    constr:    0.0000
     atom:   31    charge:    2.8596    magn:    0.0013    constr:    0.0000
     atom:   32    charge:    0.8804    magn:    0.0003    constr:    0.0000
     atom:   33    charge:   12.6786    magn:    4.3509    constr:    0.0000
     atom:   34    charge:   12.6787    magn:    4.3510    constr:    0.0000

     total cpu time spent up to now is      634.8 secs

     End of self-consistent calculation

 ------ SPIN UP ------------


          k = 0.1667 0.2887 0.0000 ( 59267 PWs)   bands (ev):

   -72.8934 -72.8897 -44.4215 -44.3782 -44.2969 -44.2929 -44.2738 -44.2698
   -21.2462 -20.6617 -20.6533 -20.1066 -20.0929 -19.5888 -19.5803 -19.0989
   -18.6976 -18.6896 -18.4596 -18.4472 -18.1942 -18.0855 -18.0769 -17.8489
   -12.4834 -12.2078 -12.1994 -11.8215 -11.8163 -11.6578 -11.1925 -11.1872
   -10.3914 -10.3673 -10.1180 -10.1138  -9.5890  -9.5871  -8.8383  -8.8248
    -8.8203  -8.7678  -8.7593  -8.5959  -8.1966  -8.0487  -8.0182  -7.8293
    -7.8255  -7.4376  -7.4369  -7.2849  -7.2555  -7.2085  -7.2047  -6.9627
    -6.9520  -6.5629  -6.5408  -6.1535  -6.1518  -5.8713  -5.4180  -5.2956
    -5.2737  -5.1995  -4.9175  -4.8944  -4.5060  -4.3568  -4.3396  -3.9789
    -2.7372  -1.9466  -1.9201  -1.7780  -1.6269  -1.6041  -1.5314  -1.5213
    -1.4410  -1.4383  -1.3959  -0.8334   0.7094   0.8883   1.0298   1.1696
     1.2836   1.4637   1.5143   1.5715   1.6031   1.7987

          k = 0.1667-0.4811 0.0000 ( 59291 PWs)   bands (ev):

   -72.8934 -72.8897 -44.4215 -44.3782 -44.2969 -44.2929 -44.2738 -44.2698
   -21.1157 -20.9117 -20.7221 -20.1601 -19.8036 -19.4661 -19.3161 -19.1740
   -19.0138 -18.7785 -18.6397 -18.5439 -18.1480 -18.0892 -17.9215 -17.7231
   -12.3474 -12.1127 -12.0442 -11.9060 -11.6803 -11.6578 -11.5521 -10.9417
   -10.8895 -10.6231 -10.5228  -9.8597  -9.6927  -9.3357  -9.1104  -8.6667
    -8.6223  -8.5523  -8.3887  -8.3669  -8.1608  -8.1236  -8.0629  -8.0488
    -7.6875  -7.6227  -7.4936  -7.4733  -7.3562  -7.1704  -7.0673  -6.8598
    -6.6216  -6.3892  -6.1764  -6.1574  -5.9720  -5.9288  -5.7829  -5.7453
    -5.4508  -5.3983  -5.2089  -5.0411  -4.4439  -4.3473  -4.0887  -3.7662
    -2.7334  -1.9463  -1.9199  -1.7748  -1.6260  -1.6039  -1.5338  -1.5223
    -1.4408  -1.4385  -1.3972  -0.8372   0.6179   0.8706   1.0244   1.1061
     1.2228   1.2834   1.3799   1.8354   1.9205   2.1130

          k = 0.1667-0.0962 0.0000 ( 59226 PWs)   bands (ev):

   -72.8934 -72.8897 -44.4215 -44.3782 -44.2969 -44.2928 -44.2738 -44.2698
   -21.3126 -20.5348 -20.3455 -20.3378 -19.9877 -19.9799 -19.8052 -18.7286
   -18.7214 -18.3764 -18.3651 -18.3550 -18.2716 -18.2576 -18.0774 -18.0702
   -12.5085 -12.5001 -12.4077 -11.5808 -11.5755 -11.4288 -11.4171 -10.9256
   -10.9231  -9.9294  -9.9253  -9.6752  -9.3769  -9.3691  -9.2305  -9.2272
    -9.0419  -9.0394  -8.9228  -8.3239  -8.3204  -7.9015  -7.8980  -7.8802
    -7.8443  -7.7697  -7.6094  -7.5815  -7.1345  -7.0925  -6.9586  -6.8872
    -6.8849  -6.8513  -6.5308  -6.5274  -6.2569  -5.3483  -5.3176  -5.1426
    -5.0647  -4.8110  -4.7949  -4.7495  -4.6241  -4.5976  -4.3529  -4.3315
    -2.7412  -1.9468  -1.9202  -1.7811  -1.6290  -1.6044  -1.5294  -1.5201
    -1.4411  -1.4382  -1.3948  -0.8295   0.8125   0.9130   0.9667   1.1860
     1.2553   1.3347   1.5774   1.5909   1.6979   1.9058

          k =-0.5000-0.8660 0.0000 ( 59292 PWs)   bands (ev):

   -72.8934 -72.8897 -44.4215 -44.3782 -44.2969 -44.2929 -44.2738 -44.2698
   -21.0518 -21.0431 -20.4697 -20.4626 -19.4286 -19.4187 -19.4143 -19.4053
   -18.9935 -18.9863 -18.3250 -18.3239 -18.3201 -18.3043 -17.7938 -17.7871
   -12.0713 -12.0671 -12.0663 -12.0537 -11.8776 -11.8723 -11.3303 -11.3253
   -10.2354 -10.2307 -10.1347 -10.1316 -10.1307 -10.1244  -8.5853  -8.5522
    -8.5479  -8.5455  -8.5439  -8.5355  -7.8635  -7.8626  -7.8585  -7.8578
    -7.8255  -7.8178  -7.7804  -7.7531  -7.4924  -7.4826  -6.6111  -6.6063
    -6.3638  -6.3230  -6.3095  -6.2945  -6.1920  -6.1842  -5.7103  -5.6974
    -5.5470  -5.5392  -4.7250  -4.7137  -4.7054  -4.6896  -3.8864  -3.8680
    -2.7166  -1.9439  -1.9173  -1.7764  -1.6264  -1.6037  -1.5338  -1.5258
    -1.4468  -1.4435  -1.3998  -0.9650   0.8270   1.0616   1.0845   1.1912
     1.3160   1.5651   1.5769   1.5953   1.6591   1.7447

          k =-0.1667 0.2887 0.0000 ( 59267 PWs)   bands (ev):

   -72.8934 -72.8897 -44.4215 -44.3782 -44.2969 -44.2929 -44.2738 -44.2698
   -21.2462 -20.6617 -20.6533 -20.1066 -20.0929 -19.5889 -19.5802 -19.0989
   -18.6977 -18.6895 -18.4596 -18.4472 -18.1942 -18.0855 -18.0769 -17.8489
   -12.4834 -12.2078 -12.1994 -11.8215 -11.8163 -11.6578 -11.1926 -11.1871
   -10.3914 -10.3673 -10.1180 -10.1138  -9.5890  -9.5871  -8.8382  -8.8247
    -8.8203  -8.7679  -8.7594  -8.5958  -8.1966  -8.0487  -8.0183  -7.8293
    -7.8255  -7.4376  -7.4369  -7.2849  -7.2555  -7.2085  -7.2046  -6.9628
    -6.9521  -6.5628  -6.5408  -6.1536  -6.1517  -5.8713  -5.4181  -5.2956
    -5.2737  -5.1994  -4.9175  -4.8944  -4.5060  -4.3568  -4.3396  -3.9789
    -2.7372  -1.9466  -1.9201  -1.7780  -1.6269  -1.6041  -1.5314  -1.5213
    -1.4410  -1.4383  -1.3959  -0.8334   0.7094   0.8884   1.0298   1.1697
     1.2835   1.4636   1.5143   1.5715   1.6030   1.7987

          k = 0.3333 0.0000 0.0000 ( 59267 PWs)   bands (ev):

   -72.8934 -72.8897 -44.4215 -44.3782 -44.2969 -44.2929 -44.2738 -44.2698
   -21.2458 -20.6840 -20.6309 -20.1023 -20.0959 -19.6114 -19.5594 -19.1006
   -18.7122 -18.6706 -18.4575 -18.4511 -18.1898 -18.1063 -18.0622 -17.8482
   -12.4833 -12.2045 -12.2023 -11.8281 -11.8117 -11.6558 -11.2091 -11.1714
   -10.3901 -10.3675 -10.1290 -10.1029  -9.5949  -9.5802  -8.8457  -8.8225
    -8.8138  -8.7857  -8.7416  -8.5969  -8.1981  -8.1009  -7.9656  -7.8276
    -7.8254  -7.4439  -7.4302  -7.2873  -7.2474  -7.2170  -7.1961  -6.9601
    -6.9558  -6.6183  -6.4935  -6.1560  -6.1485  -5.8775  -5.4177  -5.3026
    -5.2556  -5.1999  -4.9205  -4.8951  -4.4957  -4.3813  -4.3280  -3.9777
    -2.7265  -1.9448  -1.9181  -1.7792  -1.6285  -1.6041  -1.5310  -1.5231
    -1.4447  -1.4419  -1.3976  -0.9222   0.8933   0.9968   1.1223   1.2412
     1.2676   1.4395   1.5279   1.5525   1.5998   1.7808

          k =-0.1667-0.4811 0.0000 ( 59291 PWs)   bands (ev):

   -72.8934 -72.8897 -44.4215 -44.3782 -44.2969 -44.2929 -44.2738 -44.2698
   -21.1157 -20.9117 -20.7221 -20.1601 -19.8036 -19.4661 -19.3161 -19.1740
   -19.0138 -18.7785 -18.6397 -18.5439 -18.1480 -18.0892 -17.9215 -17.7231
   -12.3475 -12.1127 -12.0442 -11.9060 -11.6803 -11.6578 -11.5522 -10.9417
   -10.8895 -10.6232 -10.5227  -9.8596  -9.6927  -9.3358  -9.1105  -8.6667
    -8.6223  -8.5523  -8.3887  -8.3669  -8.1608  -8.1236  -8.0630  -8.0489
    -7.6875  -7.6228  -7.4935  -7.4733  -7.3562  -7.1703  -7.0673  -6.8598
    -6.6216  -6.3892  -6.1764  -6.1574  -5.9720  -5.9287  -5.7828  -5.7453
    -5.4508  -5.3983  -5.2089  -5.0411  -4.4439  -4.3473  -4.0887  -3.7662
    -2.7334  -1.9463  -1.9199  -1.7748  -1.6260  -1.6039  -1.5338  -1.5223
    -1.4408  -1.4385  -1.3972  -0.8372   0.6179   0.8706   1.0244   1.1061
     1.2228   1.2834   1.3800   1.8355   1.9203   2.1138

          k = 0.5000-0.0962 0.0000 ( 59291 PWs)   bands (ev):

   -72.8934 -72.8897 -44.4216 -44.3782 -44.2969 -44.2929 -44.2738 -44.2698
   -21.1131 -20.9187 -20.7176 -20.1583 -19.8039 -19.4676 -19.3218 -19.1694
   -19.0146 -18.7789 -18.6307 -18.5497 -18.1366 -18.1046 -17.9187 -17.7229
   -12.3467 -12.1129 -12.0423 -11.9096 -11.6914 -11.6444 -11.5544 -10.9419
   -10.8875 -10.6216 -10.5250  -9.8574  -9.6934  -9.3367  -9.1099  -8.6564
    -8.6226  -8.5506  -8.3992  -8.3912  -8.1588  -8.1033  -8.0748  -8.0383
    -7.6841  -7.6234  -7.4927  -7.4745  -7.3493  -7.1716  -7.0678  -6.8601
    -6.6218  -6.3986  -6.1939  -6.1567  -5.9569  -5.9278  -5.7822  -5.7466
    -5.4520  -5.3973  -5.1857  -5.0569  -4.4189  -4.3777  -4.0854  -3.7661
    -2.7168  -1.9439  -1.9173  -1.7764  -1.6270  -1.6038  -1.5338  -1.5258
    -1.4468  -1.4435  -1.3998  -0.9648   0.8136   1.0411   1.0779   1.1833
     1.2705   1.3504   1.4781   1.7286   1.8070   1.8878

          k =-0.3333-0.3849 0.0000 ( 59291 PWs)   bands (ev):

   -72.8934 -72.8897 -44.4215 -44.3782 -44.2969 -44.2929 -44.2738 -44.2698
   -21.1140 -20.9163 -20.7193 -20.1582 -19.8055 -19.4660 -19.3173 -19.1724
   -19.0173 -18.7773 -18.6320 -18.5488 -18.1389 -18.1019 -17.9188 -17.7231
   -12.3470 -12.1115 -12.0443 -11.9088 -11.6810 -11.6557 -11.5535 -10.9417
   -10.8872 -10.6209 -10.5259  -9.8583  -9.6935  -9.3360  -9.1105  -8.6595
    -8.6217  -8.5527  -8.3899  -8.3867  -8.1605  -8.1108  -8.0630  -8.0508
    -7.6845  -7.6216  -7.4993  -7.4687  -7.3483  -7.1718  -7.0683  -6.8679
    -6.6200  -6.3895  -6.1781  -6.1587  -5.9697  -5.9270  -5.7826  -5.7564
    -5.4517  -5.3925  -5.1854  -5.0572  -4.4226  -4.3746  -4.0845  -3.7663
    -2.7223  -1.9447  -1.9183  -1.7759  -1.6263  -1.6038  -1.5339  -1.5246
    -1.4448  -1.4418  -1.3989  -0.9258   0.7404   1.0336   1.0817   1.1389
     1.1984   1.3531   1.3990   1.7830   1.8879   1.9173

          k = 0.5000 0.0962 0.0000 ( 59291 PWs)   bands (ev):

   -72.8934 -72.8897 -44.4216 -44.3782 -44.2969 -44.2929 -44.2738 -44.2698
   -21.1131 -20.9187 -20.7176 -20.1583 -19.8039 -19.4676 -19.3218 -19.1694
   -19.0146 -18.7789 -18.6307 -18.5497 -18.1366 -18.1046 -17.9186 -17.7229
   -12.3467 -12.1130 -12.0423 -11.9096 -11.6914 -11.6443 -11.5544 -10.9419
   -10.8875 -10.6216 -10.5250  -9.8574  -9.6935  -9.3367  -9.1098  -8.6564
    -8.6226  -8.5506  -8.3992  -8.3912  -8.1588  -8.1033  -8.0747  -8.0383
    -7.6841  -7.6233  -7.4927  -7.4746  -7.3493  -7.1717  -7.0677  -6.8601
    -6.6217  -6.3986  -6.1939  -6.1566  -5.9570  -5.9278  -5.7823  -5.7466
    -5.4521  -5.3973  -5.1857  -5.0569  -4.4189  -4.3777  -4.0854  -3.7661
    -2.7168  -1.9439  -1.9173  -1.7764  -1.6270  -1.6038  -1.5338  -1.5258
    -1.4468  -1.4435  -1.3998  -0.9648   0.8136   1.0411   1.0779   1.1834
     1.2705   1.3504   1.4781   1.7286   1.8070   1.8877

          k =-0.3333 0.3849 0.0000 ( 59291 PWs)   bands (ev):

   -72.8934 -72.8897 -44.4215 -44.3782 -44.2969 -44.2929 -44.2738 -44.2698
   -21.1140 -20.9163 -20.7193 -20.1582 -19.8055 -19.4660 -19.3173 -19.1724
   -19.0173 -18.7774 -18.6320 -18.5488 -18.1389 -18.1019 -17.9188 -17.7231
   -12.3470 -12.1115 -12.0443 -11.9088 -11.6811 -11.6557 -11.5534 -10.9418
   -10.8871 -10.6209 -10.5259  -9.8583  -9.6935  -9.3360  -9.1105  -8.6595
    -8.6217  -8.5527  -8.3899  -8.3866  -8.1606  -8.1108  -8.0630  -8.0507
    -7.6845  -7.6216  -7.4993  -7.4687  -7.3484  -7.1718  -7.0683  -6.8679
    -6.6200  -6.3895  -6.1781  -6.1588  -5.9697  -5.9271  -5.7825  -5.7564
    -5.4516  -5.3925  -5.1854  -5.0572  -4.4227  -4.3746  -4.0845  -3.7663
    -2.7223  -1.9447  -1.9183  -1.7759  -1.6263  -1.6038  -1.5339  -1.5246
    -1.4448  -1.4418  -1.3989  -0.9258   0.7404   1.0336   1.0817   1.1390
     1.1984   1.3532   1.3990   1.7830   1.8876   1.9171

          k =-0.1667-0.0962 0.0000 ( 59226 PWs)   bands (ev):

   -72.8934 -72.8897 -44.4215 -44.3782 -44.2969 -44.2928 -44.2738 -44.2698
   -21.3126 -20.5348 -20.3455 -20.3378 -19.9877 -19.9799 -19.8052 -18.7287
   -18.7213 -18.3764 -18.3651 -18.3550 -18.2716 -18.2576 -18.0774 -18.0702
   -12.5085 -12.5001 -12.4077 -11.5808 -11.5755 -11.4288 -11.4171 -10.9256
   -10.9231  -9.9294  -9.9253  -9.6752  -9.3769  -9.3691  -9.2305  -9.2272
    -9.0419  -9.0394  -8.9228  -8.3239  -8.3204  -7.9015  -7.8980  -7.8802
    -7.8442  -7.7698  -7.6094  -7.5815  -7.1345  -7.0924  -6.9587  -6.8872
    -6.8848  -6.8513  -6.5307  -6.5273  -6.2569  -5.3483  -5.3176  -5.1425
    -5.0648  -4.8110  -4.7949  -4.7495  -4.6241  -4.5976  -4.3529  -4.3315
    -2.7412  -1.9468  -1.9202  -1.7811  -1.6290  -1.6044  -1.5294  -1.5201
    -1.4411  -1.4382  -1.3948  -0.8295   0.8125   0.9130   0.9667   1.1859
     1.2553   1.3347   1.5775   1.5910   1.6978   1.9059

          k =-0.0000-0.1925 0.0000 ( 59226 PWs)   bands (ev):

   -72.8934 -72.8897 -44.4215 -44.3782 -44.2969 -44.2929 -44.2738 -44.2698
   -21.3127 -20.5301 -20.3555 -20.3360 -19.9883 -19.9722 -19.8087 -18.7318
   -18.7149 -18.3855 -18.3799 -18.3500 -18.2553 -18.2535 -18.0843 -18.0682
   -12.5052 -12.5037 -12.4073 -11.5856 -11.5723 -11.4229 -11.4198 -10.9277
   -10.9228  -9.9302  -9.9242  -9.6758  -9.3757  -9.3695  -9.2302  -9.2274
    -9.0412  -9.0407  -8.9233  -8.3241  -8.3189  -7.8999  -7.8989  -7.8621
    -7.8422  -7.7712  -7.6372  -7.5889  -7.1159  -7.0829  -6.9572  -6.8904
    -6.8833  -6.8639  -6.5328  -6.5248  -6.2574  -5.3462  -5.3108  -5.1430
    -5.0643  -4.8416  -4.8049  -4.7477  -4.5944  -4.5876  -4.3617  -4.3325
    -2.7464  -1.9477  -1.9212  -1.7805  -1.6282  -1.6044  -1.5297  -1.5195
    -1.4395  -1.4362  -1.3940  -0.7779   0.6803   0.8502   0.9732   1.1546
     1.2421   1.3701   1.5612   1.5982   1.7169   1.9572

          k = 0.5000-0.8660 0.0000 ( 59292 PWs)   bands (ev):

   -72.8934 -72.8897 -44.4215 -44.3782 -44.2969 -44.2929 -44.2738 -44.2698
   -21.0519 -21.0431 -20.4697 -20.4626 -19.4286 -19.4187 -19.4143 -19.4053
   -18.9936 -18.9862 -18.3251 -18.3239 -18.3202 -18.3043 -17.7938 -17.7871
   -12.0712 -12.0671 -12.0664 -12.0537 -11.8776 -11.8723 -11.3303 -11.3252
   -10.2354 -10.2307 -10.1347 -10.1316 -10.1307 -10.1244  -8.5852  -8.5523
    -8.5480  -8.5455  -8.5438  -8.5354  -7.8635  -7.8626  -7.8585  -7.8578
    -7.8255  -7.8178  -7.7804  -7.7531  -7.4925  -7.4827  -6.6110  -6.6062
    -6.3638  -6.3230  -6.3095  -6.2945  -6.1920  -6.1841  -5.7103  -5.6975
    -5.5471  -5.5393  -4.7249  -4.7137  -4.7054  -4.6896  -3.8864  -3.8680
    -2.7166  -1.9439  -1.9173  -1.7764  -1.6264  -1.6037  -1.5338  -1.5258
    -1.4468  -1.4435  -1.3998  -0.9650   0.8270   1.0616   1.0845   1.1912
     1.3160   1.5650   1.5768   1.5953   1.6590   1.7447

          k =-1.0000 0.0000 0.0000 ( 59292 PWs)   bands (ev):

   -72.8934 -72.8897 -44.4215 -44.3782 -44.2969 -44.2929 -44.2738 -44.2697
   -21.0728 -21.0195 -20.4777 -20.4589 -19.4271 -19.4205 -19.4157 -19.3980
   -19.0115 -18.9703 -18.3600 -18.3446 -18.2859 -18.2832 -17.7992 -17.7833
   -12.0950 -12.0862 -12.0396 -12.0336 -11.8836 -11.8672 -11.3494 -11.3084
   -10.2463 -10.2329 -10.1342 -10.1323 -10.1226 -10.1204  -8.6296  -8.5694
    -8.5622  -8.5214  -8.5214  -8.4914  -7.8740  -7.8728  -7.8578  -7.8540
    -7.8186  -7.8141  -7.7923  -7.7547  -7.5115  -7.4654  -6.6131  -6.6026
    -6.3539  -6.3204  -6.3165  -6.2789  -6.2070  -6.1722  -5.7317  -5.6842
    -5.5644  -5.5218  -4.8016  -4.7411  -4.6535  -4.6409  -3.8924  -3.8636
    -2.7388  -1.9469  -1.9205  -1.7743  -1.6259  -1.6039  -1.5336  -1.5211
    -1.4389  -1.4368  -1.3965  -0.7862   0.5720   0.7506   1.0211   1.0965
     1.2453   1.4533   1.5884   1.6175   1.6409   1.9489

 ------ SPIN DOWN ----------


          k = 0.1667 0.2887 0.0000 ( 59267 PWs)   bands (ev):

   -68.6815 -68.6771 -40.3269 -40.2741 -40.1092 -40.1043 -40.0619 -40.0569
   -21.2422 -20.6589 -20.6485 -20.1023 -20.0894 -19.5862 -19.5752 -19.0949
   -18.6942 -18.6841 -18.4552 -18.4434 -18.1894 -18.0822 -18.0727 -17.8447
   -12.4809 -12.2047 -12.1970 -11.8190 -11.8139 -11.6556 -11.1905 -11.1838
   -10.3884 -10.3645 -10.1155 -10.1103  -9.5866  -9.5841  -8.8256  -8.8177
    -8.8144  -8.7661  -8.7560  -8.5934  -8.1942  -8.0245  -8.0084  -7.8268
    -7.8231  -7.4346  -7.4332  -7.2647  -7.2426  -7.2065  -7.2018  -6.9600
    -6.9498  -6.5414  -6.5324  -6.1510  -6.1491  -5.8551  -5.4149  -5.2729
    -5.2611  -5.1968  -4.9020  -4.8824  -4.4889  -4.3421  -4.3296  -3.9650
    -1.4016   0.3354   0.9534   1.0702   1.1241   1.1952   1.2876   1.3622
     1.3991   1.5079   1.5375   1.5837   1.6232   1.7208   1.9245   1.9482
     2.0180   2.0559   2.1366   2.1889   2.2525   2.2797

          k = 0.1667-0.4811 0.0000 ( 59291 PWs)   bands (ev):

   -68.6815 -68.6771 -40.3269 -40.2741 -40.1092 -40.1043 -40.0619 -40.0569
   -21.1114 -20.9084 -20.7181 -20.1560 -19.7998 -19.4622 -19.3124 -19.1698
   -19.0099 -18.7745 -18.6343 -18.5406 -18.1421 -18.0870 -17.9171 -17.7188
   -12.3448 -12.1101 -12.0417 -11.9036 -11.6784 -11.6547 -11.5496 -10.9388
   -10.8865 -10.6200 -10.5202  -9.8565  -9.6901  -9.3327  -9.1078  -8.6436
    -8.6197  -8.5492  -8.3863  -8.3551  -8.1583  -8.1059  -8.0608  -8.0461
    -7.6846  -7.6202  -7.4911  -7.4709  -7.3382  -7.1673  -7.0648  -6.8441
    -6.6183  -6.3736  -6.1605  -6.1547  -5.9566  -5.9255  -5.7801  -5.7298
    -5.4482  -5.3831  -5.1862  -5.0320  -4.4229  -4.3411  -4.0747  -3.7529
    -1.3913   0.3230   0.9701   0.9872   1.0656   1.1067   1.2147   1.3042
     1.3826   1.4545   1.5245   1.7320   1.8015   1.8314   1.8931   2.0557
     2.0888   2.1272   2.1356   2.2065   2.2591   2.2963

          k = 0.1667-0.0962 0.0000 ( 59226 PWs)   bands (ev):

   -68.6815 -68.6771 -40.3269 -40.2741 -40.1092 -40.1042 -40.0619 -40.0569
   -21.3087 -20.5305 -20.3416 -20.3347 -19.9829 -19.9764 -19.8018 -18.7236
   -18.7175 -18.3716 -18.3616 -18.3511 -18.2669 -18.2533 -18.0732 -18.0669
   -12.5056 -12.4978 -12.4051 -11.5781 -11.5734 -11.4258 -11.4148 -10.9227
   -10.9207  -9.9265  -9.9228  -9.6722  -9.3741  -9.3666  -9.2270  -9.2244
    -9.0392  -9.0370  -8.9044  -8.3204  -8.3174  -7.8988  -7.8952  -7.8586
    -7.8402  -7.7674  -7.5925  -7.5713  -7.1090  -7.0816  -6.9560  -6.8846
    -6.8826  -6.8406  -6.5280  -6.5250  -6.2543  -5.3251  -5.3054  -5.1397
    -5.0619  -4.7939  -4.7777  -4.7376  -4.6077  -4.5860  -4.3369  -4.3218
    -1.4120   0.3500   0.9605   1.0600   1.1050   1.1429   1.2167   1.3337
     1.4750   1.5691   1.5928   1.6169   1.7748   1.8786   1.8954   1.9126
     1.9706   2.0284   2.0832   2.1528   2.2287   2.2749

          k =-0.5000-0.8660 0.0000 ( 59292 PWs)   bands (ev):

   -68.6815 -68.6771 -40.3270 -40.2741 -40.1092 -40.1043 -40.0619 -40.0569
   -21.0491 -21.0379 -20.4656 -20.4594 -19.4230 -19.4153 -19.4104 -19.4019
   -18.9909 -18.9811 -18.3216 -18.3190 -18.3183 -18.2977 -17.7893 -17.7833
   -12.0681 -12.0652 -12.0642 -12.0502 -11.8751 -11.8704 -11.3282 -11.3219
   -10.2324 -10.2283 -10.1313 -10.1284 -10.1277 -10.1221  -8.5572  -8.5470
    -8.5458  -8.5408  -8.5388  -8.5320  -7.8607  -7.8598  -7.8560  -7.8557
    -7.8208  -7.8145  -7.7632  -7.7425  -7.4909  -7.4795  -6.6081  -6.6039
    -6.3323  -6.3047  -6.2991  -6.2848  -6.1896  -6.1808  -5.6933  -5.6867
    -5.5453  -5.5356  -4.7061  -4.7001  -4.6864  -4.6823  -3.8704  -3.8571
    -1.3633   0.0744   0.9739   1.0088   1.1778   1.1848   1.2772   1.3828
     1.5188   1.5406   1.5731   1.7158   1.7459   1.8752   1.9040   1.9338
     1.9689   2.0511   2.1521   2.1942   2.2850   2.2925

          k =-0.1667 0.2887 0.0000 ( 59267 PWs)   bands (ev):

   -68.6815 -68.6771 -40.3269 -40.2741 -40.1092 -40.1043 -40.0619 -40.0569
   -21.2422 -20.6589 -20.6484 -20.1023 -20.0894 -19.5862 -19.5752 -19.0949
   -18.6943 -18.6840 -18.4552 -18.4435 -18.1894 -18.0823 -18.0727 -17.8447
   -12.4808 -12.2047 -12.1971 -11.8190 -11.8139 -11.6556 -11.1905 -11.1838
   -10.3885 -10.3645 -10.1156 -10.1103  -9.5866  -9.5840  -8.8255  -8.8177
    -8.8144  -8.7662  -8.7560  -8.5933  -8.1942  -8.0245  -8.0085  -7.8267
    -7.8231  -7.4346  -7.4332  -7.2647  -7.2426  -7.2065  -7.2017  -6.9601
    -6.9499  -6.5414  -6.5325  -6.1510  -6.1490  -5.8551  -5.4150  -5.2729
    -5.2611  -5.1967  -4.9020  -4.8824  -4.4890  -4.3421  -4.3296  -3.9650
    -1.4016   0.3354   0.9534   1.0702   1.1241   1.1952   1.2877   1.3622
     1.3990   1.5079   1.5374   1.5837   1.6232   1.7208   1.9245   1.9482
     2.0180   2.0559   2.1367   2.1889   2.2526   2.2797

          k = 0.3333 0.0000 0.0000 ( 59267 PWs)   bands (ev):

   -68.6815 -68.6771 -40.3269 -40.2741 -40.1092 -40.1042 -40.0619 -40.0569
   -21.2419 -20.6782 -20.6291 -20.0985 -20.0921 -19.6054 -19.5574 -19.0963
   -18.7061 -18.6688 -18.4529 -18.4472 -18.1859 -18.0993 -18.0603 -17.8442
   -12.4807 -12.2020 -12.1995 -11.8254 -11.8093 -11.6538 -11.2052 -11.1698
   -10.3873 -10.3647 -10.1250 -10.1011  -9.5917  -9.5782  -8.8311  -8.8193
    -8.8063  -8.7821  -8.7404  -8.5942  -8.1954  -8.0711  -7.9617  -7.8252
    -7.8231  -7.4397  -7.4278  -7.2658  -7.2375  -7.2138  -7.1945  -6.9574
    -6.9533  -6.5898  -6.4894  -6.1531  -6.1463  -5.8594  -5.4146  -5.2844
    -5.2423  -5.1972  -4.9025  -4.8842  -4.4821  -4.3631  -4.3170  -3.9643
    -1.3840   0.1588   1.0275   1.0469   1.1691   1.1890   1.2220   1.4019
     1.4815   1.5053   1.5500   1.6873   1.7854   1.8517   1.8629   1.9470
     1.9996   2.0566   2.1142   2.1436   2.2544   2.3345

          k =-0.1667-0.4811 0.0000 ( 59291 PWs)   bands (ev):

   -68.6815 -68.6771 -40.3269 -40.2741 -40.1092 -40.1043 -40.0619 -40.0569
   -21.1114 -20.9084 -20.7181 -20.1560 -19.7998 -19.4622 -19.3124 -19.1698
   -19.0099 -18.7745 -18.6343 -18.5406 -18.1421 -18.0870 -17.9171 -17.7188
   -12.3449 -12.1100 -12.0417 -11.9036 -11.6784 -11.6547 -11.5497 -10.9388
   -10.8865 -10.6200 -10.5202  -9.8564  -9.6901  -9.3327  -9.1078  -8.6436
    -8.6197  -8.5492  -8.3863  -8.3551  -8.1582  -8.1059  -8.0609  -8.0462
    -7.6846  -7.6202  -7.4911  -7.4709  -7.3382  -7.1673  -7.0648  -6.8441
    -6.6183  -6.3736  -6.1605  -6.1547  -5.9566  -5.9254  -5.7801  -5.7298
    -5.4482  -5.3831  -5.1861  -5.0320  -4.4229  -4.3411  -4.0747  -3.7529
    -1.3913   0.3230   0.9700   0.9872   1.0656   1.1067   1.2147   1.3042
     1.3826   1.4545   1.5245   1.7320   1.8015   1.8314   1.8930   2.0558
     2.0888   2.1271   2.1358   2.2065   2.2592   2.2957

          k = 0.5000-0.0962 0.0000 ( 59291 PWs)   bands (ev):

   -68.6815 -68.6771 -40.3270 -40.2741 -40.1092 -40.1043 -40.0619 -40.0569
   -21.1093 -20.9143 -20.7142 -20.1546 -19.8001 -19.4633 -19.3171 -19.1660
   -19.0106 -18.7747 -18.6271 -18.5454 -18.1329 -18.0993 -17.9149 -17.7187
   -12.3441 -12.1104 -12.0400 -11.9068 -11.6884 -11.6427 -11.5516 -10.9390
   -10.8847 -10.6187 -10.5222  -9.8546  -9.6908  -9.3335  -9.1073  -8.6364
    -8.6200  -8.5478  -8.3895  -8.3767  -8.1565  -8.0920  -8.0712  -8.0369
    -7.6818  -7.6208  -7.4903  -7.4720  -7.3335  -7.1684  -7.0652  -6.8444
    -6.6185  -6.3788  -6.1732  -6.1542  -5.9464  -5.9247  -5.7796  -5.7309
    -5.4493  -5.3826  -5.1702  -5.0428  -4.4049  -4.3627  -4.0723  -3.7529
    -1.3634   0.0761   0.9682   1.0224   1.0960   1.1739   1.2127   1.3004
     1.3999   1.6237   1.6916   1.7664   1.8371   1.9192   1.9360   1.9833
     2.0125   2.0926   2.1751   2.2464   2.2661   2.3349

          k =-0.3333-0.3849 0.0000 ( 59291 PWs)   bands (ev):

   -68.6815 -68.6771 -40.3270 -40.2741 -40.1092 -40.1043 -40.0619 -40.0569
   -21.1100 -20.9123 -20.7157 -20.1545 -19.8014 -19.4620 -19.3133 -19.1684
   -19.0128 -18.7735 -18.6281 -18.5447 -18.1346 -18.0973 -17.9150 -17.7188
   -12.3445 -12.1090 -12.0419 -11.9061 -11.6791 -11.6529 -11.5507 -10.9389
   -10.8845 -10.6181 -10.5229  -9.8553  -9.6909  -9.3330  -9.1078  -8.6385
    -8.6191  -8.5494  -8.3873  -8.3689  -8.1580  -8.0972  -8.0609  -8.0477
    -7.6822  -7.6192  -7.4960  -7.4670  -7.3329  -7.1686  -7.0656  -6.8494
    -6.6169  -6.3737  -6.1620  -6.1557  -5.9545  -5.9240  -5.7799  -5.7377
    -5.4490  -5.3793  -5.1704  -5.0427  -4.4073  -4.3606  -4.0719  -3.7530
    -1.3729   0.1455   0.9752   0.9824   1.1109   1.1450   1.2585   1.2943
     1.3833   1.5518   1.6761   1.7591   1.8088   1.9106   1.9350   1.9771
     2.0487   2.0698   2.1231   2.2130   2.2794   2.3075

          k = 0.5000 0.0962 0.0000 ( 59291 PWs)   bands (ev):

   -68.6815 -68.6771 -40.3270 -40.2741 -40.1092 -40.1043 -40.0619 -40.0569
   -21.1093 -20.9143 -20.7142 -20.1546 -19.8001 -19.4633 -19.3171 -19.1660
   -19.0106 -18.7747 -18.6271 -18.5454 -18.1329 -18.0993 -17.9149 -17.7187
   -12.3441 -12.1104 -12.0400 -11.9069 -11.6883 -11.6427 -11.5516 -10.9390
   -10.8847 -10.6187 -10.5222  -9.8546  -9.6908  -9.3335  -9.1073  -8.6364
    -8.6200  -8.5478  -8.3895  -8.3767  -8.1565  -8.0920  -8.0712  -8.0369
    -7.6818  -7.6207  -7.4903  -7.4720  -7.3335  -7.1685  -7.0652  -6.8444
    -6.6184  -6.3788  -6.1732  -6.1541  -5.9464  -5.9247  -5.7797  -5.7309
    -5.4493  -5.3826  -5.1701  -5.0428  -4.4049  -4.3627  -4.0723  -3.7529
    -1.3634   0.0761   0.9682   1.0224   1.0960   1.1739   1.2127   1.3004
     1.3999   1.6236   1.6916   1.7664   1.8370   1.9193   1.9360   1.9833
     2.0125   2.0927   2.1751   2.2465   2.2662   2.3350

          k =-0.3333 0.3849 0.0000 ( 59291 PWs)   bands (ev):

   -68.6815 -68.6771 -40.3270 -40.2741 -40.1092 -40.1043 -40.0619 -40.0569
   -21.1100 -20.9123 -20.7157 -20.1545 -19.8014 -19.4621 -19.3133 -19.1684
   -19.0128 -18.7735 -18.6281 -18.5447 -18.1346 -18.0973 -17.9150 -17.7188
   -12.3445 -12.1090 -12.0419 -11.9061 -11.6792 -11.6529 -11.5507 -10.9389
   -10.8845 -10.6181 -10.5229  -9.8553  -9.6908  -9.3330  -9.1078  -8.6385
    -8.6192  -8.5494  -8.3873  -8.3689  -8.1581  -8.0972  -8.0609  -8.0477
    -7.6821  -7.6192  -7.4960  -7.4670  -7.3329  -7.1685  -7.0657  -6.8494
    -6.6169  -6.3737  -6.1620  -6.1558  -5.9545  -5.9241  -5.7799  -5.7377
    -5.4489  -5.3793  -5.1704  -5.0427  -4.4073  -4.3606  -4.0719  -3.7530
    -1.3729   0.1455   0.9751   0.9824   1.1110   1.1450   1.2585   1.2943
     1.3834   1.5518   1.6761   1.7591   1.8088   1.9106   1.9350   1.9770
     2.0487   2.0698   2.1231   2.2132   2.2794   2.3076

          k =-0.1667-0.0962 0.0000 ( 59226 PWs)   bands (ev):

   -68.6815 -68.6771 -40.3269 -40.2741 -40.1092 -40.1042 -40.0619 -40.0569
   -21.3087 -20.5305 -20.3416 -20.3347 -19.9829 -19.9764 -19.8018 -18.7236
   -18.7175 -18.3716 -18.3616 -18.3510 -18.2669 -18.2533 -18.0732 -18.0669
   -12.5056 -12.4978 -12.4051 -11.5781 -11.5734 -11.4258 -11.4148 -10.9227
   -10.9207  -9.9265  -9.9228  -9.6721  -9.3741  -9.3665  -9.2270  -9.2244
    -9.0392  -9.0370  -8.9044  -8.3204  -8.3174  -7.8987  -7.8951  -7.8586
    -7.8401  -7.7674  -7.5925  -7.5713  -7.1090  -7.0816  -6.9561  -6.8846
    -6.8826  -6.8406  -6.5280  -6.5249  -6.2544  -5.3251  -5.3054  -5.1396
    -5.0620  -4.7938  -4.7777  -4.7377  -4.6077  -4.5860  -4.3369  -4.3218
    -1.4120   0.3500   0.9605   1.0600   1.1050   1.1429   1.2167   1.3337
     1.4750   1.5691   1.5928   1.6170   1.7748   1.8787   1.8952   1.9127
     1.9707   2.0284   2.0832   2.1527   2.2278   2.2750

          k =-0.0000-0.1925 0.0000 ( 59226 PWs)   bands (ev):

   -68.6815 -68.6771 -40.3269 -40.2741 -40.1092 -40.1042 -40.0619 -40.0569
   -21.3088 -20.5265 -20.3508 -20.3322 -19.9843 -19.9692 -19.8047 -18.7271
   -18.7113 -18.3790 -18.3741 -18.3463 -18.2529 -18.2509 -18.0798 -18.0643
   -12.5027 -12.5010 -12.4048 -11.5828 -11.5701 -11.4206 -11.4173 -10.9248
   -10.9202  -9.9273  -9.9217  -9.6727  -9.3728  -9.3671  -9.2271  -9.2244
    -9.0387  -9.0380  -8.9048  -8.3210  -8.3158  -7.8975  -7.8964  -7.8485
    -7.8359  -7.7686  -7.6121  -7.5758  -7.0995  -7.0716  -6.9547  -6.8876
    -6.8809  -6.8496  -6.5301  -6.5225  -6.2547  -5.3264  -5.2979  -5.1401
    -5.0616  -4.8132  -4.7878  -4.7348  -4.5865  -4.5803  -4.3452  -4.3198
    -1.4202   0.4858   0.9079   1.0458   1.0707   1.1679   1.2329   1.2932
     1.4324   1.5108   1.5262   1.6118   1.7371   1.8484   1.8622   1.9347
     2.0360   2.0644   2.1176   2.1504   2.1748   2.2589

          k = 0.5000-0.8660 0.0000 ( 59292 PWs)   bands (ev):

   -68.6815 -68.6771 -40.3270 -40.2741 -40.1092 -40.1043 -40.0619 -40.0569
   -21.0491 -21.0378 -20.4656 -20.4594 -19.4230 -19.4153 -19.4104 -19.4019
   -18.9910 -18.9811 -18.3216 -18.3190 -18.3182 -18.2977 -17.7893 -17.7833
   -12.0681 -12.0653 -12.0642 -12.0502 -11.8751 -11.8704 -11.3283 -11.3218
   -10.2324 -10.2284 -10.1313 -10.1284 -10.1277 -10.1221  -8.5572  -8.5470
    -8.5458  -8.5407  -8.5388  -8.5319  -7.8607  -7.8598  -7.8560  -7.8557
    -7.8209  -7.8146  -7.7632  -7.7425  -7.4909  -7.4796  -6.6080  -6.6038
    -6.3323  -6.3047  -6.2991  -6.2848  -6.1896  -6.1806  -5.6933  -5.6867
    -5.5454  -5.5357  -4.7060  -4.7001  -4.6864  -4.6822  -3.8704  -3.8572
    -1.3633   0.0744   0.9739   1.0088   1.1778   1.1847   1.2772   1.3828
     1.5187   1.5406   1.5730   1.7157   1.7459   1.8752   1.9041   1.9339
     1.9689   2.0511   2.1524   2.1945   2.2855   2.2927

          k =-1.0000 0.0000 0.0000 ( 59292 PWs)   bands (ev):

   -68.6815 -68.6771 -40.3269 -40.2741 -40.1092 -40.1043 -40.0619 -40.0568
   -21.0672 -21.0176 -20.4732 -20.4554 -19.4227 -19.4162 -19.4118 -19.3952
   -19.0053 -18.9684 -18.3520 -18.3377 -18.2848 -18.2824 -17.7945 -17.7794
   -12.0914 -12.0818 -12.0386 -12.0326 -11.8809 -11.8653 -11.3452 -11.3068
   -10.2423 -10.2300 -10.1311 -10.1294 -10.1202 -10.1184  -8.5990  -8.5655
    -8.5584  -8.5205  -8.5201  -8.4877  -7.8707  -7.8692  -7.8553  -7.8515
    -7.8117  -7.8108  -7.7746  -7.7423  -7.5077  -7.4643  -6.6102  -6.6004
    -6.3287  -6.3038  -6.3034  -6.2709  -6.2028  -6.1701  -5.7137  -5.6715
    -5.5600  -5.5207  -4.7670  -4.7209  -4.6503  -4.6391  -3.8767  -3.8521
    -1.4000   0.4494   0.9672   1.0320   1.0375   1.0971   1.2426   1.3211
     1.3309   1.4038   1.6225   1.6376   1.6711   1.8238   1.8363   1.8590
     2.0882   2.1234   2.1555   2.1627   2.2652   2.2909

     the Fermi energy is    -1.1914 ev

!    total energy              =   -1133.82285273 Ry

     total all-electron energy =     -6753.498556 Ry
     estimated scf accuracy    <       0.00000003 Ry
     smearing contrib. (-TS)   =      -0.00000000 Ry
     internal energy E=F+TS    =   -1133.82285273 Ry

     The total energy is F=E-TS. E is the sum of the following terms:
     one-electron contribution =   -3945.93640621 Ry
     hartree contribution      =    2001.15685505 Ry
     xc contribution           =    -186.01156303 Ry
     ewald contribution        =    1356.34394076 Ry
     DFT-D3 Dispersion         =      -0.13527419 Ry
     one-center paw contrib.   =    -359.24040512 Ry

     total magnetization       =    10.00 Bohr mag/cell
     absolute magnetization    =    10.01 Bohr mag/cell

     convergence has been achieved in  15 iterations

     Writing output data file ./mytmp/Crdimer0.15-0.2.save/
 
     init_run     :     18.88s CPU     20.38s WALL (       1 calls)
     electrons    :    563.88s CPU    614.31s WALL (       1 calls)

     Called by init_run:
     wfcinit      :     13.81s CPU     14.77s WALL (       1 calls)
     potinit      :      1.55s CPU      1.63s WALL (       1 calls)
     hinit0       :      1.57s CPU      1.65s WALL (       1 calls)

     Called by electrons:
     c_bands      :    440.45s CPU    469.71s WALL (      15 calls)
     sum_band     :     87.18s CPU     99.82s WALL (      15 calls)
     v_of_rho     :      8.00s CPU      9.00s WALL (      16 calls)
     newd         :     19.72s CPU     27.14s WALL (      16 calls)
     PAW_pot      :      7.88s CPU      8.04s WALL (      16 calls)
     mix_rho      :      1.09s CPU      1.21s WALL (      15 calls)

     Called by c_bands:
     init_us_2    :      5.34s CPU      5.43s WALL (     930 calls)
     cegterg      :    427.21s CPU    456.35s WALL (     450 calls)

     Called by *egterg:
     cdiaghg      :     25.90s CPU     41.69s WALL (    2975 calls)
     h_psi        :    253.40s CPU    265.00s WALL (    3005 calls)
     s_psi        :     28.31s CPU     28.46s WALL (    3005 calls)
     g_psi        :      0.82s CPU      0.85s WALL (    2525 calls)

     Called by h_psi:
     h_psi:calbec :     30.78s CPU     31.58s WALL (    3005 calls)
     vloc_psi     :    190.90s CPU    201.41s WALL (    3005 calls)
     add_vuspsi   :     29.14s CPU     29.37s WALL (    3005 calls)

     General routines
     calbec       :     41.26s CPU     42.28s WALL (    3455 calls)
     fft          :     10.28s CPU     15.25s WALL (     394 calls)
     ffts         :      0.15s CPU      0.18s WALL (      62 calls)
     fftw         :    198.74s CPU    209.47s WALL (  260838 calls)
     interpolate  :      0.47s CPU      0.57s WALL (      32 calls)
 
     Parallel routines
     fft_scatt_xy :     31.79s CPU     33.20s WALL (  261294 calls)
     fft_scatt_yz :     84.77s CPU     94.94s WALL (  261294 calls)
 
     PWSCF        :   9m44.83s CPU  10m39.44s WALL

 
   This run was terminated on:  15:27:12  31Mar2021            

=------------------------------------------------------------------------------=
   JOB DONE.
=------------------------------------------------------------------------------=
