
     Program PWSCF v.6.7MaX starts on 31Mar2021 at 15: 5:49 

     This program is part of the open-source Quantum ESPRESSO suite
     for quantum simulation of materials; please cite
         "P. Giannozzi et al., J. Phys.:Condens. Matter 21 395502 (2009);
         "P. Giannozzi et al., J. Phys.:Condens. Matter 29 465901 (2017);
          URL http://www.quantum-espresso.org", 
     in publications or presentations arising from this work. More details at
     http://www.quantum-espresso.org/quote

     Parallel version (MPI), running on    48 processors

     MPI processes distributed on     1 nodes
     R & G space division:  proc/nbgrp/npool/nimage =      48
     Reading input from Crdimer0.15-0.1.scf.in

     Current dimensions of program PWSCF are:
     Max number of different atomic species (ntypx) = 10
     Max number of k-points (npk) =  40000
     Max angular momentum in pseudopotentials (lmaxx) =  3
     file N.pbe-n-kjpaw_psl.1.0.0.UPF: wavefunction(s)  2S renormalized
     file Cr.pbe-spn-kjpaw_psl.1.0.0.UPF: wavefunction(s)  3S 3P 3D renormalized
     file Cr.pbe-spn-kjpaw_psl.1.0.0.UPF: wavefunction(s)  3S 3P 3D renormalized

     --------------------------------------------
     Parameters for DFT-D3 Dispersion Correction:
     --------------------------------------------
       Reference C6 values for interpolation: 

         atom   Coordination number   C6
         B          0.000           214.36
         B          0.971           150.74
         B          1.944           106.23
         B          2.913            62.89
         B          4.586            56.06
         N          0.000            50.54
         N          0.994            44.25
         N          2.014            39.35
         N          2.990            31.16
         Cr1        0.000          1381.48
         Cr1        1.827           571.38
         Cr1       10.619           306.69
         Cr2        0.000          1381.48
         Cr2        1.827           571.38
         Cr2       10.619           306.69

       Values used:

         atom   Coordination number  R0_AB[au]  C6      C8
         B          3.337            3.039     62.89   2505.96
         B          3.335            3.039     62.89   2506.00
         B          3.354            3.039     62.88   2505.53
         B          3.336            3.039     62.89   2505.99
         B          3.353            3.039     62.88   2505.54
         B          3.336            3.039     62.89   2505.98
         N          3.134            2.478     31.22    688.70
         N          3.134            2.478     31.22    688.70
         N          3.166            2.478     31.21    688.43
         N          3.137            2.478     31.22    688.67
         N          3.138            2.478     31.22    688.66
         N          3.134            2.478     31.22    688.70
         N          3.137            2.478     31.22    688.67
         N          3.134            2.478     31.22    688.70
         N          3.136            2.478     31.22    688.68
         B          3.336            3.039     62.89   2506.00
         B          3.335            3.039     62.89   2506.00
         B          3.336            3.039     62.89   2505.98
         B          3.353            3.039     62.88   2505.54
         B          3.337            3.039     62.89   2505.96
         B          3.336            3.039     62.89   2506.00
         N          3.137            2.478     31.22    688.67
         B          3.335            3.039     62.89   2506.01
         B          3.336            3.039     62.89   2506.00
         B          3.353            3.039     62.88   2505.56
         N          3.134            2.478     31.22    688.70
         N          3.134            2.478     31.22    688.70
         N          3.136            2.478     31.22    688.68
         N          3.136            2.478     31.22    688.68
         N          3.166            2.478     31.21    688.43
         N          3.137            2.478     31.22    688.67
         B          3.353            3.039     62.88   2505.56
         Cr1        0.505            3.252   1378.84 127251.16
         Cr2        0.505            3.252   1378.84 127251.16

         Molecular C6 ( Ry / a.u.^6 ) =     79134.63


     Subspace diagonalization in iterative solution of the eigenvalue problem:
     one sub-group per band group will be used
     scalapack distributed-memory algorithm (size of sub-group:  6*  6 procs)

 
     Parallelization info
     --------------------
     sticks:   dense  smooth     PW     G-vecs:    dense   smooth      PW
     Min         235      98     26                36277     9874    1408
     Max         236      99     27                36282     9883    1425
     Sum       11311    4741   1285              1741401   474235   68095
 


     bravais-lattice index     =            4
     lattice parameter (alat)  =      18.9275  a.u.
     unit-cell volume          =   10553.3021 (a.u.)^3
     number of atoms/cell      =           34
     number of atomic types    =            4
     number of electrons       =       156.00
     number of Kohn-Sham states=           94
     kinetic-energy cutoff     =      48.0000  Ry
     charge density cutoff     =     457.0000  Ry
     scf convergence threshold =      1.0E-07
     mixing beta               =       0.5000
     number of iterations used =            8  plain     mixing
     Exchange-correlation= SLA  PW   PBX  PBC
                           (   1   4   3   4   0   0   0)

     celldm(1)=  18.927497  celldm(2)=   0.000000  celldm(3)=   1.797125
     celldm(4)=   0.000000  celldm(5)=   0.000000  celldm(6)=   0.000000

     crystal axes: (cart. coord. in units of alat)
               a(1) = (   1.000000   0.000000   0.000000 )  
               a(2) = (  -0.500000   0.866025   0.000000 )  
               a(3) = (   0.000000   0.000000   1.797125 )  

     reciprocal axes: (cart. coord. in units 2 pi/alat)
               b(1) = (  1.000000  0.577350  0.000000 )  
               b(2) = (  0.000000  1.154701  0.000000 )  
               b(3) = (  0.000000  0.000000  0.556444 )  


     PseudoPot. # 1 for B  read from file:
     /home/sf05/q-e-qe-6.7MaX-Release/pseudo/B.pbe-n-kjpaw_psl.1.0.0.UPF
     MD5 check sum: d9c678ba5d3b2fd7b74e61139c9288d8
     Pseudo is Projector augmented-wave + core cor, Zval =  3.0
     Generated using "atomic" code by A. Dal Corso  v.5.1.2
     Shape of augmentation charge: PSQ
     Using radial grid of 1059 points,  4 beta functions with: 
                l(1) =   0
                l(2) =   0
                l(3) =   1
                l(4) =   1
     Q(r) pseudized with 0 coefficients 


     PseudoPot. # 2 for N  read from file:
     /home/sf05/q-e-qe-6.7MaX-Release/pseudo/N.pbe-n-kjpaw_psl.1.0.0.UPF
     MD5 check sum: e0e4e94a9c4025c5b51bd7d8793849bd
     Pseudo is Projector augmented-wave + core cor, Zval =  5.0
     Generated using "atomic" code by A. Dal Corso  v.5.1.2
     Shape of augmentation charge: PSQ
     Using radial grid of 1085 points,  4 beta functions with: 
                l(1) =   0
                l(2) =   0
                l(3) =   1
                l(4) =   1
     Q(r) pseudized with 0 coefficients 


     PseudoPot. # 3 for Cr read from file:
     /home/sf05/q-e-qe-6.7MaX-Release/pseudo/Cr.pbe-spn-kjpaw_psl.1.0.0.UPF
     MD5 check sum: 198f1a2427a48552563eee314eba32ba
     Pseudo is Projector augmented-wave + core cor, Zval = 14.0
     Generated using &quot;atomic&quot; code by A. Dal Corso  v.6.3
     Shape of augmentation charge: PSQ
     Using radial grid of 1183 points,  6 beta functions with: 
                l(1) =   0
                l(2) =   0
                l(3) =   1
                l(4) =   1
                l(5) =   2
                l(6) =   2
     Q(r) pseudized with 0 coefficients 


     PseudoPot. # 4 for Cr read from file:
     /home/sf05/q-e-qe-6.7MaX-Release/pseudo/Cr.pbe-spn-kjpaw_psl.1.0.0.UPF
     MD5 check sum: 198f1a2427a48552563eee314eba32ba
     Pseudo is Projector augmented-wave + core cor, Zval = 14.0
     Generated using &quot;atomic&quot; code by A. Dal Corso  v.6.3
     Shape of augmentation charge: PSQ
     Using radial grid of 1183 points,  6 beta functions with: 
                l(1) =   0
                l(2) =   0
                l(3) =   1
                l(4) =   1
                l(5) =   2
                l(6) =   2
     Q(r) pseudized with 0 coefficients 


     atomic species   valence    mass     pseudopotential
        B              3.00    10.81100     B ( 1.00)
        N              5.00    14.00674     N ( 1.00)
        Cr1           14.00    51.99610     Cr( 1.00)
        Cr2           14.00    51.99610     Cr( 1.00)

     Starting magnetic structure 
     atomic species   magnetization
        B            0.000
        N            0.000
        Cr1          1.000
        Cr2          1.000

     No symmetry found



   Cartesian axes

     site n.     atom                  positions (alat units)
         1           B   tau(   1) = (  -0.1250000   0.2165064   0.8985623  )
         2           B   tau(   2) = (   0.3750000   0.6495191   0.8985623  )
         3           B   tau(   3) = (   0.2500000   0.0000000   0.8985623  )
         4           B   tau(   4) = (   0.7500000   0.0000000   0.8985623  )
         5           B   tau(   5) = (   0.1250000   0.2165064   0.8985623  )
         6           B   tau(   6) = (  -0.3750000   0.6495191   0.8985623  )
         7           N   tau(   7) = (   0.7500005   0.2886748   0.8985623  )
         8           N   tau(   8) = (   0.3750005   0.5051812   0.8985623  )
         9           N   tau(   9) = (   0.3750005   0.0721685   0.8985623  )
        10           N   tau(  10) = (   0.6250005   0.0721685   0.8985623  )
        11           N   tau(  11) = (   0.2500005   0.2886748   0.8985623  )
        12           N   tau(  12) = (   0.6250005   0.5051812   0.8985623  )
        13           N   tau(  13) = (   0.0000005   0.2886748   0.8985623  )
        14           N   tau(  14) = (   0.2500005   0.7216875   0.8985623  )
        15           N   tau(  15) = (  -0.2499995   0.7216875   0.8985623  )
        16           B   tau(  16) = (   0.0000000   0.4330127   0.8985623  )
        17           B   tau(  17) = (   0.1250000   0.6495191   0.8985623  )
        18           B   tau(  18) = (  -0.1250000   0.6495191   0.8985623  )
        19           B   tau(  19) = (   0.3750000   0.2165064   0.8985623  )
        20           B   tau(  20) = (   0.6250000   0.2165064   0.8985623  )
        21           B   tau(  21) = (   0.5000000   0.4330127   0.8985623  )
        22           N   tau(  22) = (   0.5000005   0.2886748   0.8985623  )
        23           B   tau(  23) = (  -0.2500000   0.4330127   0.8985623  )
        24           B   tau(  24) = (   0.2500000   0.4330127   0.8985623  )
        25           B   tau(  25) = (   0.5000000   0.0000000   0.8985623  )
        26           N   tau(  26) = (  -0.1249995   0.5051812   0.8985623  )
        27           N   tau(  27) = (   0.1250005   0.5051812   0.8985623  )
        28           N   tau(  28) = (   0.0000005   0.7216875   0.8985623  )
        29           N   tau(  29) = (   0.5000005   0.7216875   0.8985623  )
        30           N   tau(  30) = (   0.1250005   0.0721685   0.8985623  )
        31           N   tau(  31) = (   0.8750005   0.0721685   0.8985623  )
        32           B   tau(  32) = (   0.0000000   0.0000000   0.8985623  )
        33           Cr1 tau(  33) = (   0.4000000   0.0866025   1.2040735  )
        34           Cr2 tau(  34) = (   0.1000000   0.0866025   1.2040735  )

     number of k points=    15  Gaussian smearing, width (Ry)=  0.0000
                       cart. coord. in units 2pi/alat
        k(    1) = (   0.1666667   0.2886751   0.0000000), wk =   0.0740741
        k(    2) = (   0.1666667  -0.4811252   0.0000000), wk =   0.0740741
        k(    3) = (   0.1666667  -0.0962250   0.0000000), wk =   0.0740741
        k(    4) = (  -0.5000000  -0.8660254   0.0000000), wk =   0.0370370
        k(    5) = (  -0.1666667   0.2886751   0.0000000), wk =   0.0740741
        k(    6) = (   0.3333333   0.0000000   0.0000000), wk =   0.0740741
        k(    7) = (  -0.1666667  -0.4811252   0.0000000), wk =   0.0740741
        k(    8) = (   0.5000000  -0.0962250   0.0000000), wk =   0.0740741
        k(    9) = (  -0.3333333  -0.3849002   0.0000000), wk =   0.0740741
        k(   10) = (   0.5000000   0.0962250   0.0000000), wk =   0.0740741
        k(   11) = (  -0.3333333   0.3849002   0.0000000), wk =   0.0740741
        k(   12) = (  -0.1666667  -0.0962250   0.0000000), wk =   0.0740741
        k(   13) = (  -0.0000000  -0.1924501   0.0000000), wk =   0.0740741
        k(   14) = (   0.5000000  -0.8660254   0.0000000), wk =   0.0370370
        k(   15) = (  -1.0000000   0.0000000   0.0000000), wk =   0.0370370

     Dense  grid:  1741401 G-vectors     FFT dimensions: ( 135, 135, 240)

     Smooth grid:   474235 G-vectors     FFT dimensions: (  90,  90, 160)

     Estimated max dynamical RAM per process >     218.62 MB

     Estimated total dynamical RAM >      10.25 GB
     Generating pointlists ...
     new r_m :   0.0595 (alat units)  1.1269 (a.u.) for type    1
     new r_m :   0.0595 (alat units)  1.1269 (a.u.) for type    2
     new r_m :   0.1237 (alat units)  2.3423 (a.u.) for type    3
     new r_m :   0.1237 (alat units)  2.3423 (a.u.) for type    4

     Initial potential from superposition of free atoms

     starting charge  155.99382, renormalised to  156.00000

     negative rho (up, down):  6.682E-03 4.655E-04
     Starting wfcs are  148 randomized atomic wfcs
     Checking if some PAW data can be deallocated... 

     total cpu time spent up to now is       20.0 secs

     Self-consistent Calculation

     iteration #  1     ecut=    48.00 Ry     beta= 0.50
     Davidson diagonalization with overlap
     ethr =  1.00E-02,  avg # of iterations =  2.8

     negative rho (up, down):  4.863E-03 2.915E-03

     total cpu time spent up to now is       65.1 secs

     total energy              =   -1130.74766090 Ry
     estimated scf accuracy    <      11.35944859 Ry

     total magnetization       =    12.00 Bohr mag/cell
     absolute magnetization    =    12.16 Bohr mag/cell

     iteration #  2     ecut=    48.00 Ry     beta= 0.50
     Davidson diagonalization with overlap
     ethr =  7.28E-03,  avg # of iterations =  2.7

     negative rho (up, down):  1.051E-02 9.876E-03

     total cpu time spent up to now is      106.5 secs

     total energy              =   -1132.52155201 Ry
     estimated scf accuracy    <       4.71225012 Ry

     total magnetization       =     9.11 Bohr mag/cell
     absolute magnetization    =     9.56 Bohr mag/cell

     iteration #  3     ecut=    48.00 Ry     beta= 0.50
     Davidson diagonalization with overlap
     ethr =  3.02E-03,  avg # of iterations =  7.7

     negative rho (up, down):  5.869E-03 6.235E-03

     total cpu time spent up to now is      152.0 secs

     total energy              =   -1133.53591231 Ry
     estimated scf accuracy    <       1.16118061 Ry

     total magnetization       =    11.78 Bohr mag/cell
     absolute magnetization    =    11.87 Bohr mag/cell

     iteration #  4     ecut=    48.00 Ry     beta= 0.50
     Davidson diagonalization with overlap
     ethr =  7.44E-04,  avg # of iterations =  5.6

     negative rho (up, down):  6.434E-03 6.835E-03

     total cpu time spent up to now is      190.8 secs

     total energy              =   -1133.79450727 Ry
     estimated scf accuracy    <       0.21998156 Ry

     total magnetization       =    10.89 Bohr mag/cell
     absolute magnetization    =    10.93 Bohr mag/cell

     iteration #  5     ecut=    48.00 Ry     beta= 0.50
     Davidson diagonalization with overlap
     ethr =  1.41E-04,  avg # of iterations = 10.3

     negative rho (up, down):  4.283E-03 4.586E-03

     total cpu time spent up to now is      235.9 secs

     total energy              =   -1133.79229029 Ry
     estimated scf accuracy    <       0.15201258 Ry

     total magnetization       =    10.00 Bohr mag/cell
     absolute magnetization    =    10.02 Bohr mag/cell

     iteration #  6     ecut=    48.00 Ry     beta= 0.50
     Davidson diagonalization with overlap
     ethr =  9.74E-05,  avg # of iterations =  6.1

     negative rho (up, down):  3.741E-03 3.854E-03

     total cpu time spent up to now is      279.3 secs

     total energy              =   -1133.81268919 Ry
     estimated scf accuracy    <       0.06493490 Ry

     total magnetization       =    10.00 Bohr mag/cell
     absolute magnetization    =    10.03 Bohr mag/cell

     iteration #  7     ecut=    48.00 Ry     beta= 0.50
     Davidson diagonalization with overlap
     ethr =  4.16E-05,  avg # of iterations =  5.4

     negative rho (up, down):  3.383E-03 3.714E-03

     total cpu time spent up to now is      320.3 secs

     total energy              =   -1133.81963038 Ry
     estimated scf accuracy    <       0.02098807 Ry

     total magnetization       =    10.00 Bohr mag/cell
     absolute magnetization    =    10.03 Bohr mag/cell

     iteration #  8     ecut=    48.00 Ry     beta= 0.50
     Davidson diagonalization with overlap
     c_bands:  1 eigenvalues not converged
     ethr =  1.35E-05,  avg # of iterations =  5.5

     negative rho (up, down):  3.150E-03 3.654E-03

     total cpu time spent up to now is      358.1 secs

     total energy              =   -1133.82242755 Ry
     estimated scf accuracy    <       0.00162094 Ry

     total magnetization       =    10.00 Bohr mag/cell
     absolute magnetization    =    10.02 Bohr mag/cell

     iteration #  9     ecut=    48.00 Ry     beta= 0.50
     Davidson diagonalization with overlap
     ethr =  1.04E-06,  avg # of iterations =  9.3

     negative rho (up, down):  3.112E-03 3.676E-03

     total cpu time spent up to now is      408.3 secs

     total energy              =   -1133.82305640 Ry
     estimated scf accuracy    <       0.00069330 Ry

     total magnetization       =    10.00 Bohr mag/cell
     absolute magnetization    =    10.01 Bohr mag/cell

     iteration # 10     ecut=    48.00 Ry     beta= 0.50
     Davidson diagonalization with overlap
     ethr =  4.44E-07,  avg # of iterations =  3.1

     negative rho (up, down):  3.107E-03 3.700E-03

     total cpu time spent up to now is      443.4 secs

     total energy              =   -1133.82325816 Ry
     estimated scf accuracy    <       0.00005508 Ry

     total magnetization       =    10.00 Bohr mag/cell
     absolute magnetization    =    10.01 Bohr mag/cell

     iteration # 11     ecut=    48.00 Ry     beta= 0.50
     Davidson diagonalization with overlap
     ethr =  3.53E-08,  avg # of iterations =  3.8

     negative rho (up, down):  3.098E-03 3.718E-03

     total cpu time spent up to now is      480.1 secs

     total energy              =   -1133.82330360 Ry
     estimated scf accuracy    <       0.00000923 Ry

     total magnetization       =    10.00 Bohr mag/cell
     absolute magnetization    =    10.01 Bohr mag/cell

     iteration # 12     ecut=    48.00 Ry     beta= 0.50
     Davidson diagonalization with overlap
     ethr =  5.92E-09,  avg # of iterations =  4.6

     negative rho (up, down):  3.093E-03 3.734E-03

     total cpu time spent up to now is      519.4 secs

     total energy              =   -1133.82331841 Ry
     estimated scf accuracy    <       0.00000507 Ry

     total magnetization       =    10.00 Bohr mag/cell
     absolute magnetization    =    10.01 Bohr mag/cell

     iteration # 13     ecut=    48.00 Ry     beta= 0.50
     Davidson diagonalization with overlap
     ethr =  3.25E-09,  avg # of iterations =  4.7

     negative rho (up, down):  3.089E-03 3.743E-03

     total cpu time spent up to now is      556.5 secs

     total energy              =   -1133.82332387 Ry
     estimated scf accuracy    <       0.00000120 Ry

     total magnetization       =    10.00 Bohr mag/cell
     absolute magnetization    =    10.01 Bohr mag/cell

     iteration # 14     ecut=    48.00 Ry     beta= 0.50
     Davidson diagonalization with overlap
     ethr =  7.69E-10,  avg # of iterations =  5.2

     negative rho (up, down):  3.087E-03 3.748E-03

     total cpu time spent up to now is      595.3 secs

     total energy              =   -1133.82332558 Ry
     estimated scf accuracy    <       0.00000010 Ry

     total magnetization       =    10.00 Bohr mag/cell
     absolute magnetization    =    10.01 Bohr mag/cell

     iteration # 15     ecut=    48.00 Ry     beta= 0.50
     Davidson diagonalization with overlap
     ethr =  6.58E-11,  avg # of iterations =  5.4

     negative rho (up, down):  3.086E-03 3.748E-03
 
     Magnetic moment per site:
     atom:    1    charge:    0.8807    magn:    0.0001    constr:    0.0000
     atom:    2    charge:    0.8804    magn:    0.0001    constr:    0.0000
     atom:    3    charge:    0.8792    magn:    0.0010    constr:    0.0000
     atom:    4    charge:    0.8807    magn:    0.0003    constr:    0.0000
     atom:    5    charge:    0.8801    magn:    0.0003    constr:    0.0000
     atom:    6    charge:    0.8801    magn:    0.0002    constr:    0.0000
     atom:    7    charge:    2.8611    magn:    0.0001    constr:    0.0000
     atom:    8    charge:    2.8609    magn:    0.0002    constr:    0.0000
     atom:    9    charge:    2.8611    magn:    0.0068    constr:    0.0000
     atom:   10    charge:    2.8609    magn:    0.0017    constr:    0.0000
     atom:   11    charge:    2.8605    magn:    0.0028    constr:    0.0000
     atom:   12    charge:    2.8609    magn:    0.0001    constr:    0.0000
     atom:   13    charge:    2.8598    magn:    0.0023    constr:    0.0000
     atom:   14    charge:    2.8599    magn:    0.0004    constr:    0.0000
     atom:   15    charge:    2.8596    magn:    0.0017    constr:    0.0000
     atom:   16    charge:    0.8800    magn:    0.0002    constr:    0.0000
     atom:   17    charge:    0.8801    magn:    0.0001    constr:    0.0000
     atom:   18    charge:    0.8797    magn:    0.0002    constr:    0.0000
     atom:   19    charge:    0.8795    magn:    0.0003    constr:    0.0000
     atom:   20    charge:    0.8801    magn:    0.0001    constr:    0.0000
     atom:   21    charge:    0.8797    magn:    0.0002    constr:    0.0000
     atom:   22    charge:    2.8611    magn:    0.0023    constr:    0.0000
     atom:   23    charge:    0.8799    magn:    0.0001    constr:    0.0000
     atom:   24    charge:    0.8797    magn:    0.0002    constr:    0.0000
     atom:   25    charge:    0.8804    magn:    0.0002    constr:    0.0000
     atom:   26    charge:    2.8598    magn:    0.0001    constr:    0.0000
     atom:   27    charge:    2.8598    magn:    0.0002    constr:    0.0000
     atom:   28    charge:    2.8596    magn:    0.0019    constr:    0.0000
     atom:   29    charge:    2.8594    magn:    0.0019    constr:    0.0000
     atom:   30    charge:    2.8598    magn:    0.0068    constr:    0.0000
     atom:   31    charge:    2.8596    magn:    0.0017    constr:    0.0000
     atom:   32    charge:    0.8807    magn:    0.0002    constr:    0.0000
     atom:   33    charge:   12.6780    magn:    4.3489    constr:    0.0000
     atom:   34    charge:   12.6780    magn:    4.3488    constr:    0.0000

     total cpu time spent up to now is      638.0 secs

     End of self-consistent calculation

 ------ SPIN UP ------------


          k = 0.1667 0.2887 0.0000 ( 59267 PWs)   bands (ev):

   -72.8888 -72.8850 -44.4174 -44.3740 -44.3014 -44.2974 -44.2595 -44.2555
   -21.2546 -20.6676 -20.6637 -20.1107 -20.1053 -19.5932 -19.5915 -19.1068
   -18.7063 -18.6992 -18.4629 -18.4594 -18.2028 -18.0920 -18.0839 -17.8567
   -12.4916 -12.2122 -12.2101 -11.8275 -11.8247 -11.6656 -11.1986 -11.1965
   -10.3988 -10.3752 -10.1239 -10.1224  -9.5963  -9.5954  -8.8443  -8.8332
    -8.8310  -8.7728  -8.7693  -8.6033  -8.2040  -8.0607  -8.0223  -7.8370
    -7.8342  -7.4459  -7.4442  -7.2902  -7.2664  -7.2152  -7.2138  -6.9659
    -6.9640  -6.5737  -6.5443  -6.1613  -6.1600  -5.8792  -5.4257  -5.3108
    -5.2786  -5.2073  -4.9194  -4.9077  -4.5154  -4.3633  -4.3438  -3.9865
    -2.7387  -1.9519  -1.9322  -1.7785  -1.6431  -1.5547  -1.5296  -1.5253
    -1.4491  -1.4194  -1.3487  -0.8373   0.6615   0.8133   1.1020   1.1907
     1.2722   1.4508   1.5121   1.5728   1.6186   1.7894

          k = 0.1667-0.4811 0.0000 ( 59291 PWs)   bands (ev):

   -72.8888 -72.8850 -44.4174 -44.3740 -44.3014 -44.2974 -44.2595 -44.2555
   -21.1251 -20.9182 -20.7306 -20.1687 -19.8118 -19.4734 -19.3247 -19.1824
   -19.0211 -18.7852 -18.6528 -18.5493 -18.1585 -18.0933 -17.9293 -17.7311
   -12.3561 -12.1209 -12.0514 -11.9126 -11.6873 -11.6659 -11.5593 -10.9488
   -10.8979 -10.6311 -10.5292  -9.8680  -9.7004  -9.3431  -9.1182  -8.6777
    -8.6305  -8.5606  -8.3955  -8.3723  -8.1686  -8.1310  -8.0702  -8.0570
    -7.6971  -7.6305  -7.5017  -7.4807  -7.3649  -7.1775  -7.0747  -6.8687
    -6.6294  -6.3953  -6.1869  -6.1651  -5.9801  -5.9364  -5.7910  -5.7512
    -5.4582  -5.4029  -5.2248  -5.0448  -4.4560  -4.3492  -4.0965  -3.7749
    -2.7352  -1.9523  -1.9317  -1.7753  -1.6414  -1.5543  -1.5316  -1.5278
    -1.4492  -1.4191  -1.3491  -0.8405   0.5808   0.8092   1.0678   1.1429
     1.2053   1.2626   1.3947   1.8324   1.9298   2.0947

          k = 0.1667-0.0962 0.0000 ( 59226 PWs)   bands (ev):

   -72.8888 -72.8850 -44.4174 -44.3740 -44.3014 -44.2973 -44.2595 -44.2555
   -21.3210 -20.5443 -20.3554 -20.3425 -19.9996 -19.9853 -19.8119 -18.7415
   -18.7267 -18.3835 -18.3764 -18.3615 -18.2736 -18.2709 -18.0857 -18.0754
   -12.5130 -12.5111 -12.4150 -11.5902 -11.5816 -11.4315 -11.4296 -10.9338
   -10.9299  -9.9380  -9.9319  -9.6831  -9.3828  -9.3792  -9.2375  -9.2342
    -9.0494  -9.0472  -8.9318  -8.3320  -8.3272  -7.9094  -7.9066  -7.8909
    -7.8522  -7.7774  -7.6197  -7.5846  -7.1483  -7.0952  -6.9669  -6.8962
    -6.8914  -6.8563  -6.5399  -6.5339  -6.2647  -5.3683  -5.3188  -5.1504
    -5.0726  -4.8236  -4.8070  -4.7540  -4.6214  -4.6112  -4.3608  -4.3339
    -2.7422  -1.9515  -1.9327  -1.7816  -1.6459  -1.5549  -1.5276  -1.5232
    -1.4490  -1.4196  -1.3482  -0.8339   0.7454   0.8018   1.0626   1.2013
     1.2935   1.3357   1.5619   1.5822   1.7157   1.8693

          k =-0.5000-0.8660 0.0000 ( 59292 PWs)   bands (ev):

   -72.8888 -72.8850 -44.4175 -44.3740 -44.3014 -44.2974 -44.2595 -44.2555
   -21.0566 -21.0553 -20.4799 -20.4676 -19.4372 -19.4311 -19.4180 -19.4146
   -18.9986 -18.9969 -18.3285 -18.3266 -18.3257 -18.3243 -17.8036 -17.7923
   -12.0744 -12.0726 -12.0718 -12.0705 -11.8874 -11.8779 -11.3357 -11.3346
   -10.2446 -10.2367 -10.1429 -10.1414 -10.1337 -10.1327  -8.5977  -8.5579
    -8.5534  -8.5526  -8.5508  -8.5485  -7.8734  -7.8725  -7.8645  -7.8632
    -7.8321  -7.8243  -7.7929  -7.7561  -7.4966  -7.4938  -6.6215  -6.6127
    -6.3766  -6.3442  -6.3069  -6.2972  -6.1968  -6.1944  -5.7204  -5.7020
    -5.5513  -5.5506  -4.7348  -4.7277  -4.7057  -4.6967  -3.9003  -3.8687
    -2.7181  -1.9506  -1.9275  -1.7764  -1.6429  -1.5535  -1.5356  -1.5263
    -1.4527  -1.4268  -1.3539  -0.9698   0.7598   1.0137   1.1038   1.2386
     1.3064   1.5237   1.5766   1.6204   1.7037   1.7306

          k =-0.1667 0.2887 0.0000 ( 59267 PWs)   bands (ev):

   -72.8888 -72.8850 -44.4174 -44.3740 -44.3014 -44.2974 -44.2595 -44.2555
   -21.2546 -20.6676 -20.6637 -20.1107 -20.1053 -19.5932 -19.5914 -19.1068
   -18.7063 -18.6992 -18.4629 -18.4594 -18.2028 -18.0920 -18.0839 -17.8567
   -12.4916 -12.2122 -12.2101 -11.8275 -11.8247 -11.6656 -11.1986 -11.1965
   -10.3989 -10.3751 -10.1239 -10.1225  -9.5963  -9.5954  -8.8443  -8.8332
    -8.8310  -8.7728  -8.7693  -8.6033  -8.2040  -8.0606  -8.0223  -7.8370
    -7.8342  -7.4460  -7.4442  -7.2902  -7.2664  -7.2152  -7.2138  -6.9660
    -6.9640  -6.5737  -6.5443  -6.1613  -6.1599  -5.8792  -5.4258  -5.3108
    -5.2786  -5.2072  -4.9194  -4.9077  -4.5154  -4.3633  -4.3439  -3.9865
    -2.7387  -1.9519  -1.9322  -1.7785  -1.6431  -1.5547  -1.5296  -1.5253
    -1.4491  -1.4194  -1.3487  -0.8373   0.6615   0.8133   1.1020   1.1907
     1.2721   1.4508   1.5121   1.5728   1.6186   1.7894

          k = 0.3333 0.0000 0.0000 ( 59267 PWs)   bands (ev):

   -72.8888 -72.8850 -44.4175 -44.3740 -44.3014 -44.2973 -44.2595 -44.2555
   -21.2541 -20.6972 -20.6339 -20.1199 -20.0937 -19.6252 -19.5623 -19.1098
   -18.7249 -18.6734 -18.4756 -18.4487 -18.1975 -18.1197 -18.0652 -17.8554
   -12.4902 -12.2207 -12.2023 -11.8388 -11.8168 -11.6631 -11.2190 -11.1761
   -10.3986 -10.3740 -10.1402 -10.1073  -9.6032  -9.5865  -8.8451  -8.8387
    -8.8207  -8.7992  -8.7451  -8.6048  -8.2066  -8.1146  -7.9675  -7.8373
    -7.8311  -7.4526  -7.4366  -7.3090  -7.2407  -7.2265  -7.2020  -6.9771
    -6.9549  -6.6325  -6.4952  -6.1646  -6.1556  -5.8877  -5.4255  -5.3262
    -5.2475  -5.2078  -4.9451  -4.8849  -4.5064  -4.4014  -4.3221  -3.9842
    -2.7275  -1.9507  -1.9287  -1.7793  -1.6454  -1.5541  -1.5316  -1.5244
    -1.4515  -1.4246  -1.3516  -0.9270   0.7794   1.0061   1.1543   1.2337
     1.2912   1.4430   1.5183   1.5611   1.5691   1.8207

          k =-0.1667-0.4811 0.0000 ( 59291 PWs)   bands (ev):

   -72.8888 -72.8850 -44.4174 -44.3740 -44.3014 -44.2974 -44.2595 -44.2555
   -21.1251 -20.9182 -20.7306 -20.1687 -19.8118 -19.4734 -19.3246 -19.1824
   -19.0212 -18.7852 -18.6528 -18.5492 -18.1585 -18.0933 -17.9293 -17.7311
   -12.3561 -12.1209 -12.0514 -11.9126 -11.6873 -11.6659 -11.5593 -10.9488
   -10.8979 -10.6312 -10.5291  -9.8679  -9.7004  -9.3431  -9.1182  -8.6777
    -8.6305  -8.5606  -8.3955  -8.3723  -8.1685  -8.1310  -8.0703  -8.0571
    -7.6971  -7.6305  -7.5016  -7.4807  -7.3649  -7.1775  -7.0747  -6.8687
    -6.6295  -6.3954  -6.1869  -6.1651  -5.9801  -5.9364  -5.7910  -5.7512
    -5.4583  -5.4029  -5.2248  -5.0448  -4.4560  -4.3492  -4.0965  -3.7749
    -2.7352  -1.9523  -1.9317  -1.7753  -1.6414  -1.5543  -1.5316  -1.5278
    -1.4492  -1.4191  -1.3491  -0.8405   0.5808   0.8092   1.0678   1.1429
     1.2053   1.2625   1.3947   1.8324   1.9298   2.0947

          k = 0.5000-0.0962 0.0000 ( 59291 PWs)   bands (ev):

   -72.8888 -72.8850 -44.4175 -44.3740 -44.3014 -44.2974 -44.2595 -44.2555
   -21.1214 -20.9283 -20.7242 -20.1664 -19.8112 -19.4770 -19.3317 -19.1755
   -19.0231 -18.7876 -18.6375 -18.5571 -18.1439 -18.1144 -17.9254 -17.7305
   -12.3537 -12.1220 -12.0490 -11.9184 -11.7021 -11.6484 -11.5618 -10.9496
   -10.8947 -10.6287 -10.5326  -9.8651  -9.7009  -9.3441  -9.1174  -8.6650
    -8.6315  -8.5580  -8.4093  -8.4004  -8.1661  -8.1083  -8.0863  -8.0425
    -7.6916  -7.6312  -7.5005  -7.4823  -7.3577  -7.1795  -7.0757  -6.8660
    -6.6301  -6.4098  -6.2041  -6.1641  -5.9616  -5.9355  -5.7900  -5.7561
    -5.4599  -5.4071  -5.1913  -5.0620  -4.4305  -4.3855  -4.0908  -3.7735
    -2.7181  -1.9506  -1.9275  -1.7764  -1.6436  -1.5534  -1.5355  -1.5264
    -1.4527  -1.4268  -1.3539  -0.9696   0.7406   1.0115   1.1221   1.2187
     1.2620   1.2871   1.5020   1.7379   1.8144   1.9166

          k =-0.3333-0.3849 0.0000 ( 59291 PWs)   bands (ev):

   -72.8888 -72.8851 -44.4175 -44.3740 -44.3014 -44.2974 -44.2595 -44.2555
   -21.1227 -20.9247 -20.7267 -20.1659 -19.8144 -19.4739 -19.3248 -19.1808
   -19.0270 -18.7847 -18.6394 -18.5566 -18.1472 -18.1102 -17.9256 -17.7308
   -12.3552 -12.1184 -12.0524 -11.9161 -11.6890 -11.6636 -11.5609 -10.9494
   -10.8946 -10.6280 -10.5332  -9.8657  -9.7010  -9.3437  -9.1189  -8.6694
    -8.6295  -8.5602  -8.3982  -8.3947  -8.1679  -8.1170  -8.0698  -8.0607
    -7.6919  -7.6293  -7.5089  -7.4745  -7.3556  -7.1796  -7.0767  -6.8774
    -6.6273  -6.3974  -6.1854  -6.1672  -5.9783  -5.9340  -5.7904  -5.7664
    -5.4596  -5.3993  -5.1925  -5.0637  -4.4342  -4.3806  -4.0905  -3.7740
    -2.7239  -1.9512  -1.9293  -1.7760  -1.6424  -1.5538  -1.5339  -1.5271
    -1.4515  -1.4241  -1.3521  -0.9302   0.6886   0.9650   1.0822   1.1994
     1.2195   1.3443   1.3945   1.8077   1.8691   1.9095

          k = 0.5000 0.0962 0.0000 ( 59291 PWs)   bands (ev):

   -72.8888 -72.8850 -44.4175 -44.3740 -44.3014 -44.2974 -44.2595 -44.2555
   -21.1214 -20.9283 -20.7242 -20.1664 -19.8112 -19.4770 -19.3317 -19.1755
   -19.0231 -18.7876 -18.6376 -18.5571 -18.1439 -18.1144 -17.9254 -17.7305
   -12.3537 -12.1220 -12.0490 -11.9184 -11.7021 -11.6484 -11.5618 -10.9496
   -10.8947 -10.6287 -10.5326  -9.8651  -9.7009  -9.3441  -9.1173  -8.6650
    -8.6315  -8.5581  -8.4093  -8.4004  -8.1661  -8.1083  -8.0862  -8.0424
    -7.6917  -7.6312  -7.5006  -7.4823  -7.3577  -7.1796  -7.0756  -6.8660
    -6.6300  -6.4098  -6.2041  -6.1640  -5.9616  -5.9354  -5.7901  -5.7561
    -5.4599  -5.4071  -5.1913  -5.0619  -4.4305  -4.3855  -4.0909  -3.7735
    -2.7181  -1.9506  -1.9275  -1.7764  -1.6436  -1.5534  -1.5355  -1.5264
    -1.4527  -1.4268  -1.3539  -0.9696   0.7406   1.0115   1.1221   1.2187
     1.2620   1.2871   1.5020   1.7379   1.8144   1.9166

          k =-0.3333 0.3849 0.0000 ( 59291 PWs)   bands (ev):

   -72.8888 -72.8851 -44.4175 -44.3740 -44.3014 -44.2974 -44.2595 -44.2555
   -21.1227 -20.9247 -20.7267 -20.1659 -19.8144 -19.4739 -19.3248 -19.1808
   -19.0270 -18.7847 -18.6394 -18.5566 -18.1472 -18.1102 -17.9256 -17.7308
   -12.3552 -12.1184 -12.0524 -11.9161 -11.6890 -11.6636 -11.5608 -10.9494
   -10.8945 -10.6280 -10.5332  -9.8657  -9.7010  -9.3437  -9.1189  -8.6694
    -8.6295  -8.5601  -8.3983  -8.3947  -8.1680  -8.1170  -8.0698  -8.0607
    -7.6919  -7.6293  -7.5089  -7.4744  -7.3556  -7.1795  -7.0767  -6.8775
    -6.6273  -6.3974  -6.1854  -6.1673  -5.9783  -5.9341  -5.7903  -5.7664
    -5.4595  -5.3993  -5.1925  -5.0637  -4.4342  -4.3806  -4.0905  -3.7740
    -2.7239  -1.9512  -1.9293  -1.7760  -1.6424  -1.5538  -1.5339  -1.5271
    -1.4515  -1.4241  -1.3521  -0.9302   0.6886   0.9650   1.0822   1.1994
     1.2195   1.3443   1.3946   1.8077   1.8691   1.9095

          k =-0.1667-0.0962 0.0000 ( 59226 PWs)   bands (ev):

   -72.8888 -72.8850 -44.4174 -44.3740 -44.3014 -44.2973 -44.2595 -44.2555
   -21.3210 -20.5443 -20.3554 -20.3425 -19.9996 -19.9853 -19.8119 -18.7415
   -18.7267 -18.3835 -18.3764 -18.3615 -18.2736 -18.2709 -18.0857 -18.0754
   -12.5131 -12.5111 -12.4150 -11.5901 -11.5816 -11.4315 -11.4296 -10.9338
   -10.9299  -9.9380  -9.9319  -9.6830  -9.3828  -9.3792  -9.2375  -9.2342
    -9.0494  -9.0472  -8.9318  -8.3321  -8.3272  -7.9094  -7.9066  -7.8909
    -7.8522  -7.7775  -7.6197  -7.5846  -7.1483  -7.0952  -6.9670  -6.8961
    -6.8914  -6.8563  -6.5399  -6.5339  -6.2647  -5.3683  -5.3188  -5.1503
    -5.0727  -4.8236  -4.8070  -4.7540  -4.6214  -4.6112  -4.3608  -4.3339
    -2.7422  -1.9515  -1.9327  -1.7816  -1.6459  -1.5549  -1.5276  -1.5232
    -1.4490  -1.4196  -1.3482  -0.8339   0.7454   0.8018   1.0626   1.2013
     1.2935   1.3358   1.5620   1.5822   1.7157   1.8693

          k =-0.0000-0.1925 0.0000 ( 59226 PWs)   bands (ev):

   -72.8888 -72.8850 -44.4174 -44.3740 -44.3014 -44.2973 -44.2595 -44.2555
   -21.3211 -20.5379 -20.3611 -20.3484 -19.9934 -19.9819 -19.8164 -18.7372
   -18.7258 -18.4169 -18.3697 -18.3584 -18.2602 -18.2591 -18.0891 -18.0786
   -12.5213 -12.5031 -12.4147 -11.5908 -11.5822 -11.4390 -11.4189 -10.9350
   -10.9310  -9.9357  -9.9345  -9.6828  -9.3877  -9.3726  -9.2373  -9.2367
    -9.0490  -9.0470  -8.9324  -8.3304  -8.3282  -7.9098  -7.9035  -7.8701
    -7.8515  -7.7798  -7.6436  -7.6003  -7.1205  -7.0919  -6.9652  -6.8971
    -6.8924  -6.8696  -6.5391  -6.5339  -6.2653  -5.3533  -5.3224  -5.1508
    -5.0722  -4.8814  -4.7840  -4.7600  -4.6025  -4.5885  -4.3630  -4.3435
    -2.7477  -1.9520  -1.9344  -1.7812  -1.6448  -1.5552  -1.5273  -1.5232
    -1.4478  -1.4169  -1.3470  -0.7817   0.6336   0.7608   1.0434   1.1733
     1.2400   1.4034   1.5395   1.6076   1.6833   1.9826

          k = 0.5000-0.8660 0.0000 ( 59292 PWs)   bands (ev):

   -72.8888 -72.8850 -44.4175 -44.3740 -44.3014 -44.2974 -44.2595 -44.2555
   -21.0566 -21.0553 -20.4799 -20.4676 -19.4372 -19.4311 -19.4179 -19.4146
   -18.9986 -18.9969 -18.3285 -18.3266 -18.3257 -18.3242 -17.8036 -17.7923
   -12.0744 -12.0726 -12.0719 -12.0704 -11.8874 -11.8779 -11.3357 -11.3346
   -10.2446 -10.2368 -10.1429 -10.1415 -10.1337 -10.1327  -8.5977  -8.5578
    -8.5534  -8.5526  -8.5507  -8.5484  -7.8734  -7.8725  -7.8645  -7.8632
    -7.8322  -7.8243  -7.7929  -7.7561  -7.4966  -7.4939  -6.6215  -6.6126
    -6.3766  -6.3442  -6.3068  -6.2972  -6.1968  -6.1942  -5.7204  -5.7020
    -5.5514  -5.5507  -4.7348  -4.7277  -4.7057  -4.6967  -3.9003  -3.8688
    -2.7181  -1.9506  -1.9275  -1.7764  -1.6429  -1.5535  -1.5356  -1.5263
    -1.4527  -1.4268  -1.3539  -0.9698   0.7597   1.0137   1.1038   1.2386
     1.3064   1.5237   1.5765   1.6204   1.7037   1.7307

          k =-1.0000 0.0000 0.0000 ( 59292 PWs)   bands (ev):

   -72.8888 -72.8850 -44.4175 -44.3741 -44.3014 -44.2974 -44.2595 -44.2554
   -21.0859 -21.0224 -20.4831 -20.4706 -19.4390 -19.4337 -19.4190 -19.4013
   -19.0240 -18.9729 -18.3982 -18.3182 -18.3087 -18.2814 -17.8042 -17.7941
   -12.1249 -12.0739 -12.0516 -12.0348 -11.8882 -11.8772 -11.3595 -11.3128
   -10.2508 -10.2492 -10.1380 -10.1379 -10.1296 -10.1296  -8.6439  -8.5922
    -8.5575  -8.5359  -8.5192  -8.4933  -7.8864  -7.8762  -7.8684  -7.8664
    -7.8220  -7.8181  -7.7989  -7.7660  -7.5247  -7.4686  -6.6185  -6.6121
    -6.3729  -6.3453  -6.3078  -6.2752  -6.2191  -6.1757  -5.7519  -5.6764
    -5.5768  -5.5253  -4.8505  -4.6999  -4.6794  -4.6402  -3.8950  -3.8779
    -2.7407  -1.9529  -1.9324  -1.7750  -1.6410  -1.5545  -1.5311  -1.5276
    -1.4480  -1.4168  -1.3478  -0.7889   0.5391   0.7089   1.0835   1.1118
     1.1678   1.5152   1.5744   1.6184   1.6320   1.9322

 ------ SPIN DOWN ----------


          k = 0.1667 0.2887 0.0000 ( 59267 PWs)   bands (ev):

   -68.6777 -68.6734 -40.3236 -40.2707 -40.1233 -40.1183 -40.0395 -40.0345
   -21.2510 -20.6640 -20.6601 -20.1069 -20.1018 -19.5904 -19.5871 -19.1030
   -18.7013 -18.6958 -18.4591 -18.4557 -18.1983 -18.0882 -18.0809 -17.8528
   -12.4893 -12.2098 -12.2078 -11.8254 -11.8226 -11.6636 -11.1963 -11.1940
   -10.3962 -10.3727 -10.1210 -10.1201  -9.5939  -9.5931  -8.8306  -8.8282
    -8.8250  -8.7709  -8.7667  -8.6011  -8.2018  -8.0375  -8.0126  -7.8345
    -7.8320  -7.4425  -7.4416  -7.2705  -7.2541  -7.2131  -7.2113  -6.9636
    -6.9617  -6.5533  -6.5361  -6.1587  -6.1576  -5.8634  -5.4228  -5.2857
    -5.2685  -5.2047  -4.9049  -4.8958  -4.4986  -4.3486  -4.3359  -3.9732
    -1.4020   0.3440   0.8564   1.0130   1.1446   1.2180   1.3072   1.3794
     1.4192   1.4716   1.5469   1.5951   1.6401   1.7444   1.8934   2.0237
     2.0281   2.0570   2.1207   2.1655   2.2776   2.3049

          k = 0.1667-0.4811 0.0000 ( 59291 PWs)   bands (ev):

   -68.6777 -68.6734 -40.3236 -40.2707 -40.1232 -40.1183 -40.0395 -40.0345
   -21.1211 -20.9152 -20.7269 -20.1649 -19.8082 -19.4698 -19.3210 -19.1785
   -19.0175 -18.7817 -18.6475 -18.5464 -18.1532 -18.0911 -17.9254 -17.7271
   -12.3537 -12.1186 -12.0493 -11.9106 -11.6855 -11.6634 -11.5571 -10.9463
   -10.8952 -10.6285 -10.5270  -9.8651  -9.6981  -9.3404  -9.1158  -8.6549
    -8.6280  -8.5577  -8.3934  -8.3612  -8.1663  -8.1143  -8.0679  -8.0548
    -7.6944  -7.6282  -7.4992  -7.4786  -7.3475  -7.1747  -7.0724  -6.8531
    -6.6264  -6.3806  -6.1704  -6.1626  -5.9653  -5.9334  -5.7884  -5.7368
    -5.4558  -5.3893  -5.2015  -5.0367  -4.4356  -4.3435  -4.0831  -3.7616
    -1.3920   0.3333   0.8602   0.9596   1.0216   1.1539   1.2666   1.3115
     1.3915   1.4601   1.5460   1.7223   1.7815   1.8937   1.9339   2.0247
     2.0882   2.1159   2.1499   2.1910   2.2820   2.3300

          k = 0.1667-0.0962 0.0000 ( 59226 PWs)   bands (ev):

   -68.6777 -68.6733 -40.3236 -40.2707 -40.1233 -40.1183 -40.0395 -40.0345
   -21.3173 -20.5402 -20.3518 -20.3396 -19.9950 -19.9822 -19.8088 -18.7364
   -18.7233 -18.3787 -18.3727 -18.3582 -18.2695 -18.2670 -18.0821 -18.0723
   -12.5107 -12.5089 -12.4127 -11.5876 -11.5798 -11.4291 -11.4273 -10.9312
   -10.9276  -9.9353  -9.9298  -9.6803  -9.3803  -9.3769  -9.2346  -9.2317
    -9.0470  -9.0450  -8.9137  -8.3289  -8.3245  -7.9065  -7.9043  -7.8690
    -7.8488  -7.7752  -7.6035  -7.5748  -7.1237  -7.0850  -6.9644  -6.8936
    -6.8895  -6.8464  -6.5372  -6.5318  -6.2623  -5.3431  -5.3079  -5.1477
    -5.0699  -4.8021  -4.7914  -4.7445  -4.6077  -4.6000  -4.3468  -4.3247
    -1.4119   0.3572   0.8550   1.0028   1.1219   1.1916   1.2260   1.3429
     1.5042   1.5354   1.5821   1.6723   1.7940   1.8340   1.8721   1.9280
     2.0096   2.0662   2.0832   2.1374   2.2389   2.3072

          k =-0.5000-0.8660 0.0000 ( 59292 PWs)   bands (ev):

   -68.6777 -68.6734 -40.3237 -40.2707 -40.1233 -40.1183 -40.0395 -40.0345
   -21.0535 -21.0510 -20.4761 -20.4646 -19.4321 -19.4266 -19.4151 -19.4115
   -18.9952 -18.9931 -18.3242 -18.3239 -18.3226 -18.3186 -17.7994 -17.7888
   -12.0718 -12.0704 -12.0704 -12.0674 -11.8850 -11.8764 -11.3335 -11.3320
   -10.2416 -10.2348 -10.1398 -10.1387 -10.1314 -10.1305  -8.5705  -8.5521
    -8.5513  -8.5508  -8.5475  -8.5416  -7.8704  -7.8698  -7.8626  -7.8613
    -7.8289  -7.8213  -7.7755  -7.7460  -7.4951  -7.4909  -6.6184  -6.6106
    -6.3448  -6.3252  -6.2979  -6.2890  -6.1944  -6.1913  -5.7020  -5.6939
    -5.5497  -5.5472  -4.7132  -4.7055  -4.6974  -4.6920  -3.8840  -3.8594
    -1.3640   0.0812   0.8740   1.0265   1.0985   1.2367   1.2881   1.4227
     1.5024   1.5503   1.5823   1.7342   1.7602   1.8712   1.9093   1.9206
     1.9547   2.1044   2.1530   2.1626   2.3014   2.3296

          k =-0.1667 0.2887 0.0000 ( 59267 PWs)   bands (ev):

   -68.6777 -68.6734 -40.3236 -40.2707 -40.1233 -40.1183 -40.0395 -40.0345
   -21.2510 -20.6640 -20.6601 -20.1069 -20.1018 -19.5904 -19.5871 -19.1030
   -18.7013 -18.6957 -18.4591 -18.4557 -18.1983 -18.0882 -18.0809 -17.8528
   -12.4893 -12.2098 -12.2078 -11.8254 -11.8226 -11.6636 -11.1963 -11.1939
   -10.3962 -10.3727 -10.1211 -10.1201  -9.5939  -9.5930  -8.8306  -8.8282
    -8.8250  -8.7709  -8.7667  -8.6010  -8.2019  -8.0374  -8.0126  -7.8345
    -7.8319  -7.4425  -7.4416  -7.2705  -7.2541  -7.2131  -7.2113  -6.9637
    -6.9617  -6.5533  -6.5361  -6.1587  -6.1575  -5.8634  -5.4229  -5.2857
    -5.2685  -5.2046  -4.9048  -4.8958  -4.4986  -4.3486  -4.3359  -3.9732
    -1.4020   0.3440   0.8564   1.0130   1.1446   1.2180   1.3072   1.3794
     1.4192   1.4716   1.5469   1.5951   1.6400   1.7444   1.8935   2.0237
     2.0281   2.0570   2.1207   2.1655   2.2777   2.3049

          k = 0.3333 0.0000 0.0000 ( 59267 PWs)   bands (ev):

   -68.6777 -68.6734 -40.3237 -40.2707 -40.1233 -40.1183 -40.0395 -40.0345
   -21.2505 -20.6919 -20.6321 -20.1159 -20.0907 -19.6196 -19.5604 -19.1057
   -18.7191 -18.6716 -18.4713 -18.4453 -18.1937 -18.1137 -18.0633 -17.8517
   -12.4880 -12.2178 -12.2004 -11.8362 -11.8149 -11.6613 -11.2157 -11.1746
   -10.3960 -10.3716 -10.1366 -10.1057  -9.6004  -9.5847  -8.8357  -8.8289
    -8.8160  -8.7956  -8.7439  -8.6024  -8.2041  -8.0859  -7.9637  -7.8349
    -7.8290  -7.4489  -7.4344  -7.2870  -7.2326  -7.2234  -7.2004  -6.9741
    -6.9530  -6.6050  -6.4912  -6.1619  -6.1534  -5.8697  -5.4226  -5.3040
    -5.2391  -5.2052  -4.9261  -4.8765  -4.4915  -4.3820  -4.3149  -3.9716
    -1.3842   0.1651   0.9245   0.9884   1.1733   1.2185   1.2605   1.4402
     1.4719   1.4991   1.5572   1.7226   1.7686   1.8379   1.8932   1.9226
     2.0092   2.0525   2.1231   2.2010   2.2776   2.3074

          k =-0.1667-0.4811 0.0000 ( 59291 PWs)   bands (ev):

   -68.6777 -68.6734 -40.3236 -40.2707 -40.1232 -40.1183 -40.0395 -40.0345
   -21.1211 -20.9152 -20.7269 -20.1649 -19.8082 -19.4698 -19.3210 -19.1785
   -19.0175 -18.7817 -18.6475 -18.5464 -18.1532 -18.0911 -17.9254 -17.7271
   -12.3537 -12.1186 -12.0493 -11.9105 -11.6855 -11.6634 -11.5571 -10.9463
   -10.8952 -10.6285 -10.5269  -9.8650  -9.6981  -9.3404  -9.1158  -8.6549
    -8.6280  -8.5577  -8.3934  -8.3612  -8.1662  -8.1143  -8.0680  -8.0548
    -7.6944  -7.6282  -7.4992  -7.4786  -7.3475  -7.1747  -7.0724  -6.8531
    -6.6264  -6.3806  -6.1704  -6.1627  -5.9653  -5.9334  -5.7884  -5.7368
    -5.4558  -5.3893  -5.2014  -5.0367  -4.4355  -4.3435  -4.0831  -3.7616
    -1.3920   0.3333   0.8602   0.9596   1.0216   1.1539   1.2666   1.3115
     1.3915   1.4601   1.5461   1.7223   1.7815   1.8937   1.9339   2.0247
     2.0882   2.1159   2.1499   2.1909   2.2820   2.3297

          k = 0.5000-0.0962 0.0000 ( 59291 PWs)   bands (ev):

   -68.6777 -68.6734 -40.3237 -40.2707 -40.1233 -40.1183 -40.0395 -40.0345
   -21.1177 -20.9242 -20.7212 -20.1629 -19.8077 -19.4729 -19.3273 -19.1725
   -19.0192 -18.7838 -18.6341 -18.5533 -18.1401 -18.1099 -17.9220 -17.7266
   -12.3515 -12.1195 -12.0471 -11.9159 -11.6993 -11.6470 -11.5594 -10.9470
   -10.8922 -10.6262 -10.5301  -9.8625  -9.6986  -9.3413  -9.1151  -8.6457
    -8.6288  -8.5554  -8.3993  -8.3870  -8.1640  -8.0979  -8.0828  -8.0413
    -7.6894  -7.6288  -7.4982  -7.4801  -7.3422  -7.1765  -7.0733  -6.8513
    -6.6269  -6.3897  -6.1843  -6.1618  -5.9518  -5.9326  -5.7875  -5.7402
    -5.4573  -5.3924  -5.1770  -5.0493  -4.4142  -4.3725  -4.0791  -3.7608
    -1.3640   0.0829   0.8734   1.0111   1.0537   1.2010   1.2644   1.2889
     1.4300   1.6193   1.6810   1.7900   1.8757   1.9103   1.9319   1.9772
     2.0209   2.0770   2.1910   2.2410   2.2735   2.3380

          k =-0.3333-0.3849 0.0000 ( 59291 PWs)   bands (ev):

   -68.6777 -68.6734 -40.3237 -40.2707 -40.1232 -40.1183 -40.0395 -40.0345
   -21.1189 -20.9210 -20.7234 -20.1624 -19.8105 -19.4702 -19.3211 -19.1771
   -19.0227 -18.7812 -18.6357 -18.5529 -18.1429 -18.1062 -17.9222 -17.7268
   -12.3529 -12.1163 -12.0502 -11.9137 -11.6871 -11.6612 -11.5585 -10.9469
   -10.8922 -10.6256 -10.5306  -9.8630  -9.6987  -9.3410  -9.1164  -8.6487
    -8.6271  -8.5573  -8.3954  -8.3779  -8.1657  -8.1042  -8.0676  -8.0581
    -7.6897  -7.6271  -7.5058  -7.4729  -7.3408  -7.1766  -7.0741  -6.8592
    -6.6244  -6.3820  -6.1702  -6.1641  -5.9632  -5.9313  -5.7879  -5.7483
    -5.4570  -5.3867  -5.1781  -5.0503  -4.4173  -4.3685  -4.0789  -3.7611
    -1.3737   0.1527   0.8588   1.0036   1.0484   1.2047   1.2470   1.3285
     1.4154   1.5400   1.6921   1.7504   1.8157   1.9036   1.9346   2.0070
     2.0410   2.0935   2.1351   2.1944   2.2965   2.3184

          k = 0.5000 0.0962 0.0000 ( 59291 PWs)   bands (ev):

   -68.6777 -68.6734 -40.3237 -40.2707 -40.1233 -40.1183 -40.0395 -40.0345
   -21.1177 -20.9242 -20.7212 -20.1629 -19.8077 -19.4729 -19.3273 -19.1724
   -19.0192 -18.7838 -18.6341 -18.5533 -18.1401 -18.1099 -17.9220 -17.7266
   -12.3515 -12.1195 -12.0471 -11.9159 -11.6993 -11.6470 -11.5594 -10.9470
   -10.8922 -10.6262 -10.5301  -9.8625  -9.6986  -9.3413  -9.1150  -8.6457
    -8.6288  -8.5555  -8.3993  -8.3870  -8.1640  -8.0979  -8.0828  -8.0412
    -7.6895  -7.6288  -7.4982  -7.4801  -7.3422  -7.1766  -7.0732  -6.8513
    -6.6268  -6.3896  -6.1843  -6.1617  -5.9518  -5.9326  -5.7876  -5.7402
    -5.4573  -5.3924  -5.1770  -5.0493  -4.4142  -4.3724  -4.0791  -3.7608
    -1.3640   0.0829   0.8734   1.0111   1.0537   1.2010   1.2644   1.2889
     1.4300   1.6193   1.6810   1.7900   1.8757   1.9103   1.9319   1.9772
     2.0209   2.0770   2.1911   2.2410   2.2734   2.3379

          k =-0.3333 0.3849 0.0000 ( 59291 PWs)   bands (ev):

   -68.6777 -68.6734 -40.3237 -40.2707 -40.1232 -40.1183 -40.0395 -40.0345
   -21.1189 -20.9210 -20.7234 -20.1624 -19.8105 -19.4702 -19.3211 -19.1771
   -19.0227 -18.7812 -18.6357 -18.5529 -18.1429 -18.1062 -17.9222 -17.7268
   -12.3529 -12.1163 -12.0502 -11.9137 -11.6871 -11.6613 -11.5585 -10.9469
   -10.8921 -10.6255 -10.5306  -9.8630  -9.6986  -9.3410  -9.1164  -8.6487
    -8.6271  -8.5572  -8.3954  -8.3779  -8.1657  -8.1042  -8.0676  -8.0581
    -7.6897  -7.6271  -7.5058  -7.4729  -7.3408  -7.1765  -7.0742  -6.8592
    -6.6245  -6.3820  -6.1702  -6.1641  -5.9632  -5.9314  -5.7878  -5.7483
    -5.4569  -5.3867  -5.1781  -5.0503  -4.4173  -4.3685  -4.0788  -3.7611
    -1.3737   0.1527   0.8588   1.0036   1.0484   1.2047   1.2470   1.3285
     1.4154   1.5400   1.6921   1.7504   1.8157   1.9036   1.9346   2.0069
     2.0410   2.0936   2.1351   2.1944   2.2964   2.3185

          k =-0.1667-0.0962 0.0000 ( 59226 PWs)   bands (ev):

   -68.6777 -68.6733 -40.3236 -40.2707 -40.1233 -40.1183 -40.0395 -40.0345
   -21.3173 -20.5402 -20.3518 -20.3396 -19.9950 -19.9822 -19.8088 -18.7364
   -18.7233 -18.3787 -18.3727 -18.3582 -18.2695 -18.2670 -18.0821 -18.0723
   -12.5107 -12.5089 -12.4127 -11.5876 -11.5798 -11.4291 -11.4273 -10.9312
   -10.9276  -9.9353  -9.9299  -9.6803  -9.3803  -9.3768  -9.2346  -9.2317
    -9.0470  -9.0450  -8.9137  -8.3290  -8.3246  -7.9065  -7.9043  -7.8690
    -7.8487  -7.7753  -7.6035  -7.5748  -7.1237  -7.0850  -6.9645  -6.8936
    -6.8894  -6.8464  -6.5372  -6.5317  -6.2624  -5.3431  -5.3079  -5.1476
    -5.0700  -4.8021  -4.7914  -4.7445  -4.6077  -4.5999  -4.3468  -4.3247
    -1.4119   0.3572   0.8550   1.0028   1.1219   1.1916   1.2260   1.3429
     1.5043   1.5354   1.5821   1.6723   1.7940   1.8340   1.8721   1.9280
     2.0096   2.0662   2.0831   2.1374   2.2384   2.3083

          k =-0.0000-0.1925 0.0000 ( 59226 PWs)   bands (ev):

   -68.6777 -68.6733 -40.3236 -40.2707 -40.1233 -40.1183 -40.0395 -40.0345
   -21.3175 -20.5344 -20.3567 -20.3450 -19.9896 -19.9790 -19.8129 -18.7327
   -18.7224 -18.4096 -18.3655 -18.3554 -18.2586 -18.2557 -18.0850 -18.0752
   -12.5186 -12.5013 -12.4125 -11.5884 -11.5802 -11.4364 -11.4171 -10.9323
   -10.9287  -9.9332  -9.9321  -9.6801  -9.3849  -9.3707  -9.2346  -9.2338
    -9.0468  -9.0447  -8.9142  -8.3277  -8.3252  -7.9074  -7.9013  -7.8565
    -7.8455  -7.7773  -7.6187  -7.5883  -7.1043  -7.0816  -6.9628  -6.8946
    -6.8901  -6.8564  -6.5365  -6.5318  -6.2629  -5.3325  -5.3100  -5.1481
    -5.0695  -4.8500  -4.7730  -4.7460  -4.5960  -4.5803  -4.3484  -4.3317
    -1.4202   0.4999   0.7979   1.0041   1.1254   1.1418   1.2675   1.2974
     1.4598   1.4682   1.5562   1.6174   1.7281   1.8255   1.8960   2.0063
     2.0454   2.0710   2.1085   2.1550   2.1746   2.2857

          k = 0.5000-0.8660 0.0000 ( 59292 PWs)   bands (ev):

   -68.6777 -68.6734 -40.3237 -40.2707 -40.1233 -40.1183 -40.0395 -40.0345
   -21.0536 -21.0510 -20.4761 -20.4646 -19.4321 -19.4266 -19.4151 -19.4115
   -18.9952 -18.9930 -18.3243 -18.3239 -18.3226 -18.3186 -17.7994 -17.7888
   -12.0719 -12.0704 -12.0704 -12.0673 -11.8850 -11.8764 -11.3336 -11.3319
   -10.2416 -10.2349 -10.1398 -10.1387 -10.1314 -10.1305  -8.5705  -8.5522
    -8.5513  -8.5508  -8.5474  -8.5416  -7.8704  -7.8698  -7.8626  -7.8612
    -7.8290  -7.8213  -7.7755  -7.7460  -7.4952  -7.4910  -6.6183  -6.6106
    -6.3448  -6.3252  -6.2979  -6.2890  -6.1944  -6.1911  -5.7020  -5.6939
    -5.5498  -5.5472  -4.7131  -4.7055  -4.6974  -4.6920  -3.8840  -3.8595
    -1.3640   0.0812   0.8740   1.0266   1.0985   1.2366   1.2881   1.4227
     1.5024   1.5502   1.5823   1.7342   1.7601   1.8712   1.9093   1.9206
     1.9547   2.1045   2.1530   2.1626   2.3013   2.3295

          k =-1.0000 0.0000 0.0000 ( 59292 PWs)   bands (ev):

   -68.6777 -68.6734 -40.3237 -40.2707 -40.1233 -40.1183 -40.0395 -40.0345
   -21.0807 -21.0206 -20.4789 -20.4673 -19.4347 -19.4297 -19.4150 -19.3990
   -19.0185 -18.9711 -18.3899 -18.3145 -18.3055 -18.2809 -17.7998 -17.7906
   -12.1203 -12.0717 -12.0501 -12.0341 -11.8860 -11.8755 -11.3560 -11.3113
   -10.2476 -10.2460 -10.1355 -10.1353 -10.1278 -10.1274  -8.6142  -8.5878
    -8.5549  -8.5345  -8.5185  -8.4896  -7.8826  -7.8731  -7.8659  -7.8641
    -7.8162  -7.8154  -7.7810  -7.7544  -7.5211  -7.4676  -6.6158  -6.6100
    -6.3466  -6.3272  -6.2964  -6.2698  -6.2151  -6.1738  -5.7319  -5.6680
    -5.5728  -5.5242  -4.8134  -4.6878  -4.6718  -4.6391  -3.8805  -3.8656
    -1.4007   0.4652   0.8744   0.9557   1.0160   1.1200   1.2479   1.3217
     1.4142   1.4716   1.6044   1.6404   1.6612   1.7866   1.8826   1.9415
     2.0622   2.0803   2.1390   2.1464   2.2918   2.3280

     the Fermi energy is    -1.1882 ev

!    total energy              =   -1133.82332616 Ry

     total all-electron energy =     -6753.499029 Ry
     estimated scf accuracy    <       0.00000006 Ry
     smearing contrib. (-TS)   =      -0.00000000 Ry
     internal energy E=F+TS    =   -1133.82332616 Ry

     The total energy is F=E-TS. E is the sum of the following terms:
     one-electron contribution =   -3945.91977712 Ry
     hartree contribution      =    2001.11053048 Ry
     xc contribution           =    -186.00788961 Ry
     ewald contribution        =    1356.36984747 Ry
     DFT-D3 Dispersion         =      -0.13557138 Ry
     one-center paw contrib.   =    -359.24046600 Ry

     total magnetization       =    10.00 Bohr mag/cell
     absolute magnetization    =    10.01 Bohr mag/cell

     convergence has been achieved in  15 iterations

     Writing output data file ./mytmp/Crdimer0.15-0.1.save/
 
     init_run     :     18.54s CPU     19.66s WALL (       1 calls)
     electrons    :    570.60s CPU    618.27s WALL (       1 calls)

     Called by init_run:
     wfcinit      :     13.48s CPU     14.10s WALL (       1 calls)
     potinit      :      1.51s CPU      1.58s WALL (       1 calls)
     hinit0       :      1.54s CPU      1.62s WALL (       1 calls)

     Called by electrons:
     c_bands      :    447.07s CPU    474.14s WALL (      15 calls)
     sum_band     :     86.99s CPU     99.43s WALL (      15 calls)
     v_of_rho     :      8.22s CPU      9.00s WALL (      16 calls)
     newd         :     19.74s CPU     27.06s WALL (      16 calls)
     PAW_pot      :      7.90s CPU      8.01s WALL (      16 calls)
     mix_rho      :      1.08s CPU      1.21s WALL (      15 calls)

     Called by c_bands:
     init_us_2    :      5.39s CPU      5.41s WALL (     930 calls)
     cegterg      :    433.86s CPU    460.85s WALL (     450 calls)

     Called by *egterg:
     cdiaghg      :     26.22s CPU     41.71s WALL (    2921 calls)
     h_psi        :    258.41s CPU    268.65s WALL (    2951 calls)
     s_psi        :     28.68s CPU     28.73s WALL (    2951 calls)
     g_psi        :      0.87s CPU      0.89s WALL (    2471 calls)

     Called by h_psi:
     h_psi:calbec :     30.99s CPU     31.67s WALL (    2951 calls)
     vloc_psi     :    195.62s CPU    205.05s WALL (    2951 calls)
     add_vuspsi   :     29.18s CPU     29.30s WALL (    2951 calls)

     General routines
     calbec       :     41.46s CPU     42.35s WALL (    3401 calls)
     fft          :     10.35s CPU     15.16s WALL (     394 calls)
     ffts         :      0.13s CPU      0.14s WALL (      62 calls)
     fftw         :    201.96s CPU    211.64s WALL (  264170 calls)
     interpolate  :      0.47s CPU      0.51s WALL (      32 calls)
 
     Parallel routines
     fft_scatt_xy :     32.21s CPU     33.47s WALL (  264626 calls)
     fft_scatt_yz :     86.26s CPU     95.72s WALL (  264626 calls)
 
     PWSCF        :   9m51.18s CPU  10m42.64s WALL

 
   This run was terminated on:  15:16:31  31Mar2021            

=------------------------------------------------------------------------------=
   JOB DONE.
=------------------------------------------------------------------------------=
