
     Program PWSCF v.6.7MaX starts on 31Mar2021 at 15:37:51 

     This program is part of the open-source Quantum ESPRESSO suite
     for quantum simulation of materials; please cite
         "P. Giannozzi et al., J. Phys.:Condens. Matter 21 395502 (2009);
         "P. Giannozzi et al., J. Phys.:Condens. Matter 29 465901 (2017);
          URL http://www.quantum-espresso.org", 
     in publications or presentations arising from this work. More details at
     http://www.quantum-espresso.org/quote

     Parallel version (MPI), running on    48 processors

     MPI processes distributed on     1 nodes
     R & G space division:  proc/nbgrp/npool/nimage =      48
     Reading input from Crdimer0.15-0.4.scf.in

     Current dimensions of program PWSCF are:
     Max number of different atomic species (ntypx) = 10
     Max number of k-points (npk) =  40000
     Max angular momentum in pseudopotentials (lmaxx) =  3
     file N.pbe-n-kjpaw_psl.1.0.0.UPF: wavefunction(s)  2S renormalized
     file Cr.pbe-spn-kjpaw_psl.1.0.0.UPF: wavefunction(s)  3S 3P 3D renormalized
     file Cr.pbe-spn-kjpaw_psl.1.0.0.UPF: wavefunction(s)  3S 3P 3D renormalized

     --------------------------------------------
     Parameters for DFT-D3 Dispersion Correction:
     --------------------------------------------
       Reference C6 values for interpolation: 

         atom   Coordination number   C6
         B          0.000           214.36
         B          0.971           150.74
         B          1.944           106.23
         B          2.913            62.89
         B          4.586            56.06
         N          0.000            50.54
         N          0.994            44.25
         N          2.014            39.35
         N          2.990            31.16
         Cr1        0.000          1381.48
         Cr1        1.827           571.38
         Cr1       10.619           306.69
         Cr2        0.000          1381.48
         Cr2        1.827           571.38
         Cr2       10.619           306.69

       Values used:

         atom   Coordination number  R0_AB[au]  C6      C8
         B          3.337            3.039     62.89   2505.96
         B          3.336            3.039     62.89   2505.98
         B          3.336            3.039     62.89   2506.00
         B          3.335            3.039     62.89   2506.01
         B          3.353            3.039     62.88   2505.54
         B          3.335            3.039     62.89   2506.00
         N          3.135            2.478     31.22    688.69
         N          3.142            2.478     31.21    688.62
         N          3.135            2.478     31.22    688.68
         N          3.134            2.478     31.22    688.69
         N          3.150            2.478     31.21    688.56
         N          3.135            2.478     31.22    688.69
         N          3.149            2.478     31.21    688.57
         N          3.134            2.478     31.22    688.70
         N          3.134            2.478     31.22    688.70
         B          3.353            3.039     62.88   2505.56
         B          3.336            3.039     62.89   2505.98
         B          3.335            3.039     62.89   2506.00
         B          3.353            3.039     62.88   2505.54
         B          3.337            3.039     62.89   2505.96
         B          3.353            3.039     62.88   2505.56
         N          3.149            2.478     31.21    688.57
         B          3.336            3.039     62.89   2505.99
         B          3.354            3.039     62.88   2505.53
         B          3.336            3.039     62.89   2506.00
         N          3.135            2.478     31.22    688.69
         N          3.142            2.478     31.21    688.62
         N          3.134            2.478     31.22    688.70
         N          3.134            2.478     31.22    688.70
         N          3.135            2.478     31.22    688.68
         N          3.134            2.478     31.22    688.69
         B          3.336            3.039     62.89   2506.00
         Cr1        0.496            3.252   1379.15 127279.71
         Cr2        0.496            3.252   1379.15 127279.71

         Molecular C6 ( Ry / a.u.^6 ) =     79138.43


     Subspace diagonalization in iterative solution of the eigenvalue problem:
     one sub-group per band group will be used
     scalapack distributed-memory algorithm (size of sub-group:  6*  6 procs)

 
     Parallelization info
     --------------------
     sticks:   dense  smooth     PW     G-vecs:    dense   smooth      PW
     Min         235      98     26                36277     9874    1408
     Max         236      99     27                36282     9883    1425
     Sum       11311    4741   1285              1741401   474235   68095
 


     bravais-lattice index     =            4
     lattice parameter (alat)  =      18.9275  a.u.
     unit-cell volume          =   10553.3021 (a.u.)^3
     number of atoms/cell      =           34
     number of atomic types    =            4
     number of electrons       =       156.00
     number of Kohn-Sham states=           94
     kinetic-energy cutoff     =      48.0000  Ry
     charge density cutoff     =     457.0000  Ry
     scf convergence threshold =      1.0E-07
     mixing beta               =       0.5000
     number of iterations used =            8  plain     mixing
     Exchange-correlation= SLA  PW   PBX  PBC
                           (   1   4   3   4   0   0   0)

     celldm(1)=  18.927497  celldm(2)=   0.000000  celldm(3)=   1.797125
     celldm(4)=   0.000000  celldm(5)=   0.000000  celldm(6)=   0.000000

     crystal axes: (cart. coord. in units of alat)
               a(1) = (   1.000000   0.000000   0.000000 )  
               a(2) = (  -0.500000   0.866025   0.000000 )  
               a(3) = (   0.000000   0.000000   1.797125 )  

     reciprocal axes: (cart. coord. in units 2 pi/alat)
               b(1) = (  1.000000  0.577350  0.000000 )  
               b(2) = (  0.000000  1.154701  0.000000 )  
               b(3) = (  0.000000  0.000000  0.556444 )  


     PseudoPot. # 1 for B  read from file:
     /home/sf05/q-e-qe-6.7MaX-Release/pseudo/B.pbe-n-kjpaw_psl.1.0.0.UPF
     MD5 check sum: d9c678ba5d3b2fd7b74e61139c9288d8
     Pseudo is Projector augmented-wave + core cor, Zval =  3.0
     Generated using "atomic" code by A. Dal Corso  v.5.1.2
     Shape of augmentation charge: PSQ
     Using radial grid of 1059 points,  4 beta functions with: 
                l(1) =   0
                l(2) =   0
                l(3) =   1
                l(4) =   1
     Q(r) pseudized with 0 coefficients 


     PseudoPot. # 2 for N  read from file:
     /home/sf05/q-e-qe-6.7MaX-Release/pseudo/N.pbe-n-kjpaw_psl.1.0.0.UPF
     MD5 check sum: e0e4e94a9c4025c5b51bd7d8793849bd
     Pseudo is Projector augmented-wave + core cor, Zval =  5.0
     Generated using "atomic" code by A. Dal Corso  v.5.1.2
     Shape of augmentation charge: PSQ
     Using radial grid of 1085 points,  4 beta functions with: 
                l(1) =   0
                l(2) =   0
                l(3) =   1
                l(4) =   1
     Q(r) pseudized with 0 coefficients 


     PseudoPot. # 3 for Cr read from file:
     /home/sf05/q-e-qe-6.7MaX-Release/pseudo/Cr.pbe-spn-kjpaw_psl.1.0.0.UPF
     MD5 check sum: 198f1a2427a48552563eee314eba32ba
     Pseudo is Projector augmented-wave + core cor, Zval = 14.0
     Generated using &quot;atomic&quot; code by A. Dal Corso  v.6.3
     Shape of augmentation charge: PSQ
     Using radial grid of 1183 points,  6 beta functions with: 
                l(1) =   0
                l(2) =   0
                l(3) =   1
                l(4) =   1
                l(5) =   2
                l(6) =   2
     Q(r) pseudized with 0 coefficients 


     PseudoPot. # 4 for Cr read from file:
     /home/sf05/q-e-qe-6.7MaX-Release/pseudo/Cr.pbe-spn-kjpaw_psl.1.0.0.UPF
     MD5 check sum: 198f1a2427a48552563eee314eba32ba
     Pseudo is Projector augmented-wave + core cor, Zval = 14.0
     Generated using &quot;atomic&quot; code by A. Dal Corso  v.6.3
     Shape of augmentation charge: PSQ
     Using radial grid of 1183 points,  6 beta functions with: 
                l(1) =   0
                l(2) =   0
                l(3) =   1
                l(4) =   1
                l(5) =   2
                l(6) =   2
     Q(r) pseudized with 0 coefficients 


     atomic species   valence    mass     pseudopotential
        B              3.00    10.81100     B ( 1.00)
        N              5.00    14.00674     N ( 1.00)
        Cr1           14.00    51.99610     Cr( 1.00)
        Cr2           14.00    51.99610     Cr( 1.00)

     Starting magnetic structure 
     atomic species   magnetization
        B            0.000
        N            0.000
        Cr1          1.000
        Cr2          1.000

     No symmetry found



   Cartesian axes

     site n.     atom                  positions (alat units)
         1           B   tau(   1) = (  -0.1250000   0.2165064   0.8985623  )
         2           B   tau(   2) = (   0.3750000   0.6495191   0.8985623  )
         3           B   tau(   3) = (   0.2500000   0.0000000   0.8985623  )
         4           B   tau(   4) = (   0.7500000   0.0000000   0.8985623  )
         5           B   tau(   5) = (   0.1250000   0.2165064   0.8985623  )
         6           B   tau(   6) = (  -0.3750000   0.6495191   0.8985623  )
         7           N   tau(   7) = (   0.7500005   0.2886748   0.8985623  )
         8           N   tau(   8) = (   0.3750005   0.5051812   0.8985623  )
         9           N   tau(   9) = (   0.3750005   0.0721685   0.8985623  )
        10           N   tau(  10) = (   0.6250005   0.0721685   0.8985623  )
        11           N   tau(  11) = (   0.2500005   0.2886748   0.8985623  )
        12           N   tau(  12) = (   0.6250005   0.5051812   0.8985623  )
        13           N   tau(  13) = (   0.0000005   0.2886748   0.8985623  )
        14           N   tau(  14) = (   0.2500005   0.7216875   0.8985623  )
        15           N   tau(  15) = (  -0.2499995   0.7216875   0.8985623  )
        16           B   tau(  16) = (   0.0000000   0.4330127   0.8985623  )
        17           B   tau(  17) = (   0.1250000   0.6495191   0.8985623  )
        18           B   tau(  18) = (  -0.1250000   0.6495191   0.8985623  )
        19           B   tau(  19) = (   0.3750000   0.2165064   0.8985623  )
        20           B   tau(  20) = (   0.6250000   0.2165064   0.8985623  )
        21           B   tau(  21) = (   0.5000000   0.4330127   0.8985623  )
        22           N   tau(  22) = (   0.5000005   0.2886748   0.8985623  )
        23           B   tau(  23) = (  -0.2500000   0.4330127   0.8985623  )
        24           B   tau(  24) = (   0.2500000   0.4330127   0.8985623  )
        25           B   tau(  25) = (   0.5000000   0.0000000   0.8985623  )
        26           N   tau(  26) = (  -0.1249995   0.5051812   0.8985623  )
        27           N   tau(  27) = (   0.1250005   0.5051812   0.8985623  )
        28           N   tau(  28) = (   0.0000005   0.7216875   0.8985623  )
        29           N   tau(  29) = (   0.5000005   0.7216875   0.8985623  )
        30           N   tau(  30) = (   0.1250005   0.0721685   0.8985623  )
        31           N   tau(  31) = (   0.8750005   0.0721685   0.8985623  )
        32           B   tau(  32) = (   0.0000000   0.0000000   0.8985623  )
        33           Cr1 tau(  33) = (   0.4000000   0.3464102   1.2040735  )
        34           Cr2 tau(  34) = (   0.1000000   0.3464102   1.2040735  )

     number of k points=    15  Gaussian smearing, width (Ry)=  0.0000
                       cart. coord. in units 2pi/alat
        k(    1) = (   0.1666667   0.2886751   0.0000000), wk =   0.0740741
        k(    2) = (   0.1666667  -0.4811252   0.0000000), wk =   0.0740741
        k(    3) = (   0.1666667  -0.0962250   0.0000000), wk =   0.0740741
        k(    4) = (  -0.5000000  -0.8660254   0.0000000), wk =   0.0370370
        k(    5) = (  -0.1666667   0.2886751   0.0000000), wk =   0.0740741
        k(    6) = (   0.3333333   0.0000000   0.0000000), wk =   0.0740741
        k(    7) = (  -0.1666667  -0.4811252   0.0000000), wk =   0.0740741
        k(    8) = (   0.5000000  -0.0962250   0.0000000), wk =   0.0740741
        k(    9) = (  -0.3333333  -0.3849002   0.0000000), wk =   0.0740741
        k(   10) = (   0.5000000   0.0962250   0.0000000), wk =   0.0740741
        k(   11) = (  -0.3333333   0.3849002   0.0000000), wk =   0.0740741
        k(   12) = (  -0.1666667  -0.0962250   0.0000000), wk =   0.0740741
        k(   13) = (  -0.0000000  -0.1924501   0.0000000), wk =   0.0740741
        k(   14) = (   0.5000000  -0.8660254   0.0000000), wk =   0.0370370
        k(   15) = (  -1.0000000   0.0000000   0.0000000), wk =   0.0370370

     Dense  grid:  1741401 G-vectors     FFT dimensions: ( 135, 135, 240)

     Smooth grid:   474235 G-vectors     FFT dimensions: (  90,  90, 160)

     Estimated max dynamical RAM per process >     218.62 MB

     Estimated total dynamical RAM >      10.25 GB
     Generating pointlists ...
     new r_m :   0.0595 (alat units)  1.1269 (a.u.) for type    1
     new r_m :   0.0595 (alat units)  1.1269 (a.u.) for type    2
     new r_m :   0.1237 (alat units)  2.3423 (a.u.) for type    3
     new r_m :   0.1237 (alat units)  2.3423 (a.u.) for type    4

     Initial potential from superposition of free atoms

     starting charge  155.99382, renormalised to  156.00000

     negative rho (up, down):  6.688E-03 4.655E-04
     Starting wfcs are  148 randomized atomic wfcs
     Checking if some PAW data can be deallocated... 

     total cpu time spent up to now is       20.4 secs

     Self-consistent Calculation

     iteration #  1     ecut=    48.00 Ry     beta= 0.50
     Davidson diagonalization with overlap
     ethr =  1.00E-02,  avg # of iterations =  2.8

     negative rho (up, down):  4.872E-03 2.925E-03

     total cpu time spent up to now is       64.8 secs

     total energy              =   -1130.74421920 Ry
     estimated scf accuracy    <      11.37060232 Ry

     total magnetization       =    12.00 Bohr mag/cell
     absolute magnetization    =    12.13 Bohr mag/cell

     iteration #  2     ecut=    48.00 Ry     beta= 0.50
     Davidson diagonalization with overlap
     ethr =  7.29E-03,  avg # of iterations =  2.8

     negative rho (up, down):  8.913E-03 8.139E-03

     total cpu time spent up to now is      105.0 secs

     total energy              =   -1132.88203361 Ry
     estimated scf accuracy    <       3.87935409 Ry

     total magnetization       =    10.00 Bohr mag/cell
     absolute magnetization    =    10.07 Bohr mag/cell

     iteration #  3     ecut=    48.00 Ry     beta= 0.50
     Davidson diagonalization with overlap
     ethr =  2.49E-03,  avg # of iterations =  6.3

     negative rho (up, down):  4.246E-03 4.343E-03

     total cpu time spent up to now is      144.9 secs

     total energy              =   -1133.56060553 Ry
     estimated scf accuracy    <       0.87984061 Ry

     total magnetization       =    12.00 Bohr mag/cell
     absolute magnetization    =    12.06 Bohr mag/cell

     iteration #  4     ecut=    48.00 Ry     beta= 0.50
     Davidson diagonalization with overlap
     ethr =  5.64E-04,  avg # of iterations =  6.7

     negative rho (up, down):  6.603E-03 7.292E-03

     total cpu time spent up to now is      183.8 secs

     total energy              =   -1133.78385240 Ry
     estimated scf accuracy    <       0.42732943 Ry

     total magnetization       =    10.00 Bohr mag/cell
     absolute magnetization    =    10.02 Bohr mag/cell

     iteration #  5     ecut=    48.00 Ry     beta= 0.50
     Davidson diagonalization with overlap
     ethr =  2.74E-04,  avg # of iterations =  6.6

     negative rho (up, down):  4.574E-03 4.955E-03

     total cpu time spent up to now is      222.9 secs

     total energy              =   -1133.81042862 Ry
     estimated scf accuracy    <       0.02752053 Ry

     total magnetization       =    10.44 Bohr mag/cell
     absolute magnetization    =    10.45 Bohr mag/cell

     iteration #  6     ecut=    48.00 Ry     beta= 0.50
     Davidson diagonalization with overlap
     c_bands:  1 eigenvalues not converged
     ethr =  1.76E-05,  avg # of iterations = 12.2

     negative rho (up, down):  3.860E-03 3.880E-03

     total cpu time spent up to now is      274.7 secs

     total energy              =   -1133.81606367 Ry
     estimated scf accuracy    <       0.02910162 Ry

     total magnetization       =    10.00 Bohr mag/cell
     absolute magnetization    =    10.03 Bohr mag/cell

     iteration #  7     ecut=    48.00 Ry     beta= 0.50
     Davidson diagonalization with overlap
     ethr =  1.76E-05,  avg # of iterations =  6.1

     negative rho (up, down):  3.332E-03 3.760E-03

     total cpu time spent up to now is      313.4 secs

     total energy              =   -1133.82175652 Ry
     estimated scf accuracy    <       0.00491527 Ry

     total magnetization       =    10.00 Bohr mag/cell
     absolute magnetization    =    10.02 Bohr mag/cell

     iteration #  8     ecut=    48.00 Ry     beta= 0.50
     Davidson diagonalization with overlap
     ethr =  3.15E-06,  avg # of iterations =  8.2

     negative rho (up, down):  3.194E-03 3.691E-03

     total cpu time spent up to now is      353.7 secs

     total energy              =   -1133.82326461 Ry
     estimated scf accuracy    <       0.00088876 Ry

     total magnetization       =    10.00 Bohr mag/cell
     absolute magnetization    =    10.02 Bohr mag/cell

     iteration #  9     ecut=    48.00 Ry     beta= 0.50
     Davidson diagonalization with overlap
     ethr =  5.70E-07,  avg # of iterations =  3.6

     negative rho (up, down):  3.144E-03 3.689E-03

     total cpu time spent up to now is      386.7 secs

     total energy              =   -1133.82367737 Ry
     estimated scf accuracy    <       0.00016651 Ry

     total magnetization       =    10.00 Bohr mag/cell
     absolute magnetization    =    10.01 Bohr mag/cell

     iteration # 10     ecut=    48.00 Ry     beta= 0.50
     Davidson diagonalization with overlap
     c_bands:  1 eigenvalues not converged
     ethr =  1.07E-07,  avg # of iterations =  4.6

     negative rho (up, down):  3.134E-03 3.700E-03

     total cpu time spent up to now is      427.7 secs

     total energy              =   -1133.82382043 Ry
     estimated scf accuracy    <       0.00003976 Ry

     total magnetization       =    10.00 Bohr mag/cell
     absolute magnetization    =    10.01 Bohr mag/cell

     iteration # 11     ecut=    48.00 Ry     beta= 0.50
     Davidson diagonalization with overlap
     ethr =  2.55E-08,  avg # of iterations =  4.5

     negative rho (up, down):  3.129E-03 3.717E-03

     total cpu time spent up to now is      463.6 secs

     total energy              =   -1133.82386184 Ry
     estimated scf accuracy    <       0.00000795 Ry

     total magnetization       =    10.00 Bohr mag/cell
     absolute magnetization    =    10.01 Bohr mag/cell

     iteration # 12     ecut=    48.00 Ry     beta= 0.50
     Davidson diagonalization with overlap
     ethr =  5.09E-09,  avg # of iterations =  4.8

     negative rho (up, down):  3.124E-03 3.734E-03

     total cpu time spent up to now is      500.2 secs

     total energy              =   -1133.82387593 Ry
     estimated scf accuracy    <       0.00000296 Ry

     total magnetization       =    10.00 Bohr mag/cell
     absolute magnetization    =    10.01 Bohr mag/cell

     iteration # 13     ecut=    48.00 Ry     beta= 0.50
     Davidson diagonalization with overlap
     ethr =  1.90E-09,  avg # of iterations =  4.8

     negative rho (up, down):  3.119E-03 3.743E-03

     total cpu time spent up to now is      534.9 secs

     total energy              =   -1133.82388121 Ry
     estimated scf accuracy    <       0.00000042 Ry

     total magnetization       =    10.00 Bohr mag/cell
     absolute magnetization    =    10.01 Bohr mag/cell

     iteration # 14     ecut=    48.00 Ry     beta= 0.50
     Davidson diagonalization with overlap
     ethr =  2.69E-10,  avg # of iterations =  5.5

     negative rho (up, down):  3.117E-03 3.746E-03

     total cpu time spent up to now is      572.8 secs

     total energy              =   -1133.82388248 Ry
     estimated scf accuracy    <       0.00000019 Ry

     total magnetization       =    10.00 Bohr mag/cell
     absolute magnetization    =    10.01 Bohr mag/cell

     iteration # 15     ecut=    48.00 Ry     beta= 0.50
     Davidson diagonalization with overlap
     ethr =  1.19E-10,  avg # of iterations =  4.7

     negative rho (up, down):  3.117E-03 3.746E-03
 
     Magnetic moment per site:
     atom:    1    charge:    0.8808    magn:    0.0008    constr:    0.0000
     atom:    2    charge:    0.8802    magn:    0.0005    constr:    0.0000
     atom:    3    charge:    0.8800    magn:    0.0001    constr:    0.0000
     atom:    4    charge:    0.8804    magn:    0.0001    constr:    0.0000
     atom:    5    charge:    0.8801    magn:    0.0001    constr:    0.0000
     atom:    6    charge:    0.8803    magn:    0.0001    constr:    0.0000
     atom:    7    charge:    2.8610    magn:    0.0004    constr:    0.0000
     atom:    8    charge:    2.8607    magn:    0.0041    constr:    0.0000
     atom:    9    charge:    2.8608    magn:    0.0015    constr:    0.0000
     atom:   10    charge:    2.8609    magn:    0.0004    constr:    0.0000
     atom:   11    charge:    2.8605    magn:    0.0064    constr:    0.0000
     atom:   12    charge:    2.8610    magn:    0.0010    constr:    0.0000
     atom:   13    charge:    2.8596    magn:    0.0053    constr:    0.0000
     atom:   14    charge:    2.8598    magn:    0.0003    constr:    0.0000
     atom:   15    charge:    2.8600    magn:    0.0000    constr:    0.0000
     atom:   16    charge:    0.8805    magn:   -0.0000    constr:    0.0000
     atom:   17    charge:    0.8798    magn:    0.0005    constr:    0.0000
     atom:   18    charge:    0.8800    magn:    0.0001    constr:    0.0000
     atom:   19    charge:    0.8795    magn:    0.0001    constr:    0.0000
     atom:   20    charge:    0.8802    magn:    0.0008    constr:    0.0000
     atom:   21    charge:    0.8802    magn:   -0.0000    constr:    0.0000
     atom:   22    charge:    2.8609    magn:    0.0053    constr:    0.0000
     atom:   23    charge:    0.8804    magn:    0.0001    constr:    0.0000
     atom:   24    charge:    0.8788    magn:   -0.0001    constr:    0.0000
     atom:   25    charge:    0.8799    magn:    0.0001    constr:    0.0000
     atom:   26    charge:    2.8599    magn:    0.0010    constr:    0.0000
     atom:   27    charge:    2.8595    magn:    0.0041    constr:    0.0000
     atom:   28    charge:    2.8598    magn:    0.0002    constr:    0.0000
     atom:   29    charge:    2.8596    magn:    0.0002    constr:    0.0000
     atom:   30    charge:    2.8594    magn:    0.0015    constr:    0.0000
     atom:   31    charge:    2.8596    magn:    0.0004    constr:    0.0000
     atom:   32    charge:    0.8802    magn:    0.0001    constr:    0.0000
     atom:   33    charge:   12.6781    magn:    4.3523    constr:    0.0000
     atom:   34    charge:   12.6780    magn:    4.3523    constr:    0.0000

     total cpu time spent up to now is      607.4 secs

     End of self-consistent calculation

 ------ SPIN UP ------------


          k = 0.1667 0.2887 0.0000 ( 59267 PWs)   bands (ev):

   -72.8797 -72.8760 -44.4082 -44.3650 -44.2885 -44.2845 -44.2552 -44.2510
   -21.2556 -20.6706 -20.6628 -20.1186 -20.0991 -19.5975 -19.5893 -19.1077
   -18.7076 -18.6986 -18.4710 -18.4532 -18.2032 -18.0940 -18.0844 -17.8574
   -12.4931 -12.2190 -12.2061 -11.8301 -11.8253 -11.6669 -11.2012 -11.1966
   -10.4006 -10.3758 -10.1268 -10.1222  -9.5976  -9.5962  -8.8477  -8.8343
    -8.8280  -8.7765  -8.7679  -8.6045  -8.2053  -8.0553  -8.0274  -7.8394
    -7.8338  -7.4472  -7.4448  -7.2981  -7.2573  -7.2174  -7.2139  -6.9739
    -6.9582  -6.5691  -6.5495  -6.1624  -6.1608  -5.8785  -5.4267  -5.3009
    -5.2844  -5.2084  -4.9283  -4.8992  -4.5131  -4.3646  -4.3462  -3.9863
    -2.7283  -1.9481  -1.8697  -1.7744  -1.6191  -1.5827  -1.5198  -1.4982
    -1.4619  -1.4367  -1.3728  -0.8175   0.6924   0.9191   1.0742   1.1551
     1.2653   1.4576   1.4875   1.5773   1.5942   1.7765

          k = 0.1667-0.4811 0.0000 ( 59291 PWs)   bands (ev):

   -72.8797 -72.8760 -44.4082 -44.3650 -44.2885 -44.2845 -44.2552 -44.2510
   -21.1258 -20.9197 -20.7316 -20.1695 -19.8126 -19.4750 -19.3247 -19.1835
   -19.0223 -18.7877 -18.6504 -18.5510 -18.1582 -18.0955 -17.9304 -17.7316
   -12.3574 -12.1224 -12.0529 -11.9145 -11.6893 -11.6665 -11.5608 -10.9499
   -10.8990 -10.6323 -10.5309  -9.8689  -9.7016  -9.3443  -9.1194  -8.6756
    -8.6315  -8.5616  -8.3970  -8.3731  -8.1698  -8.1318  -8.0720  -8.0578
    -7.6975  -7.6316  -7.5029  -7.4818  -7.3642  -7.1790  -7.0758  -6.8674
    -6.6303  -6.3964  -6.1830  -6.1660  -5.9810  -5.9374  -5.7920  -5.7514
    -5.4594  -5.4070  -5.2178  -5.0472  -4.4523  -4.3530  -4.0970  -3.7738
    -2.7246  -1.9480  -1.8698  -1.7710  -1.6181  -1.5823  -1.5228  -1.4992
    -1.4620  -1.4364  -1.3736  -0.8217   0.6016   0.9030   1.0715   1.1303
     1.2060   1.2334   1.3549   1.8312   1.9095   2.1135

          k = 0.1667-0.0962 0.0000 ( 59226 PWs)   bands (ev):

   -72.8797 -72.8760 -44.4082 -44.3650 -44.2885 -44.2844 -44.2552 -44.2510
   -21.3219 -20.5451 -20.3536 -20.3469 -19.9964 -19.9899 -19.8131 -18.7368
   -18.7325 -18.3873 -18.3703 -18.3667 -18.2817 -18.2639 -18.0845 -18.0788
   -12.5193 -12.5078 -12.4163 -11.5899 -11.5850 -11.4402 -11.4234 -10.9343
   -10.9322  -9.9370  -9.9353  -9.6844  -9.3868  -9.3776  -9.2384  -9.2365
    -9.0501  -9.0484  -8.9308  -8.3313  -8.3303  -7.9117  -7.9058  -7.8894
    -7.8534  -7.7785  -7.6152  -7.5905  -7.1397  -7.1024  -6.9680  -6.8960
    -6.8939  -6.8576  -6.5388  -6.5371  -6.2656  -5.3532  -5.3294  -5.1515
    -5.0735  -4.8196  -4.7961  -4.7653  -4.6288  -4.6050  -4.3586  -4.3393
    -2.7322  -1.9481  -1.8696  -1.7778  -1.6211  -1.5831  -1.5169  -1.4974
    -1.4618  -1.4370  -1.3722  -0.8132   0.7999   0.9027   1.0240   1.1727
     1.2679   1.3203   1.5594   1.5766   1.6889   1.8774

          k =-0.5000-0.8660 0.0000 ( 59292 PWs)   bands (ev):

   -72.8797 -72.8760 -44.4082 -44.3650 -44.2885 -44.2845 -44.2551 -44.2509
   -21.0610 -21.0528 -20.4776 -20.4723 -19.4392 -19.4331 -19.4171 -19.4145
   -19.0023 -18.9947 -18.3371 -18.3350 -18.3258 -18.3106 -17.8007 -17.7969
   -12.0816 -12.0781 -12.0734 -12.0619 -11.8863 -11.8818 -11.3386 -11.3345
   -10.2429 -10.2414 -10.1443 -10.1401 -10.1370 -10.1341  -8.5913  -8.5608
    -8.5574  -8.5553  -8.5537  -8.5450  -7.8728  -7.8708  -7.8699  -7.8662
    -7.8303  -7.8276  -7.7862  -7.7630  -7.5007  -7.4918  -6.6188  -6.6172
    -6.3684  -6.3331  -6.3206  -6.2989  -6.1998  -6.1936  -5.7145  -5.7078
    -5.5561  -5.5478  -4.7347  -4.7223  -4.7097  -4.6974  -3.8923  -3.8769
    -2.7078  -1.9459  -1.8695  -1.7737  -1.6184  -1.5839  -1.5256  -1.5013
    -1.4650  -1.4408  -1.3719  -0.9476   0.7975   1.0576   1.0864   1.2072
     1.3947   1.5170   1.5789   1.6073   1.6280   1.7399

          k =-0.1667 0.2887 0.0000 ( 59267 PWs)   bands (ev):

   -72.8797 -72.8760 -44.4082 -44.3650 -44.2885 -44.2845 -44.2552 -44.2510
   -21.2556 -20.6707 -20.6627 -20.1186 -20.0991 -19.5975 -19.5893 -19.1077
   -18.7076 -18.6985 -18.4710 -18.4532 -18.2032 -18.0940 -18.0844 -17.8574
   -12.4930 -12.2190 -12.2061 -11.8301 -11.8253 -11.6669 -11.2013 -11.1965
   -10.4007 -10.3758 -10.1269 -10.1222  -9.5977  -9.5962  -8.8477  -8.8343
    -8.8280  -8.7766  -8.7679  -8.6045  -8.2053  -8.0553  -8.0274  -7.8394
    -7.8338  -7.4472  -7.4448  -7.2981  -7.2573  -7.2174  -7.2139  -6.9739
    -6.9583  -6.5691  -6.5495  -6.1624  -6.1608  -5.8784  -5.4268  -5.3009
    -5.2844  -5.2083  -4.9283  -4.8992  -4.5131  -4.3647  -4.3461  -3.9863
    -2.7283  -1.9481  -1.8697  -1.7744  -1.6191  -1.5827  -1.5198  -1.4982
    -1.4619  -1.4367  -1.3728  -0.8175   0.6924   0.9191   1.0742   1.1552
     1.2652   1.4576   1.4875   1.5772   1.5942   1.7765

          k = 0.3333 0.0000 0.0000 ( 59267 PWs)   bands (ev):

   -72.8797 -72.8760 -44.4082 -44.3650 -44.2885 -44.2844 -44.2552 -44.2510
   -21.2551 -20.6969 -20.6363 -20.1178 -20.0982 -19.6240 -19.5648 -19.1100
   -18.7244 -18.6761 -18.4726 -18.4539 -18.1984 -18.1175 -18.0681 -17.8565
   -12.4920 -12.2201 -12.2054 -11.8400 -11.8184 -11.6649 -11.2195 -11.1781
   -10.3996 -10.3756 -10.1407 -10.1094  -9.6042  -9.5882  -8.8502  -8.8356
    -8.8214  -8.7983  -8.7475  -8.6052  -8.2076  -8.1114  -7.9706  -7.8374
    -7.8332  -7.4536  -7.4384  -7.3004  -7.2494  -7.2270  -7.2037  -6.9747
    -6.9594  -6.6276  -6.4987  -6.1651  -6.1571  -5.8855  -5.4267  -5.3174
    -5.2556  -5.2087  -4.9370  -4.8936  -4.5037  -4.3952  -4.3290  -3.9851
    -2.7175  -1.9464  -1.8695  -1.7763  -1.6204  -1.5838  -1.5213  -1.4993
    -1.4632  -1.4398  -1.3718  -0.9049   0.8300   1.0639   1.1434   1.2429
     1.2802   1.4368   1.4995   1.5537   1.5856   1.7526

          k =-0.1667-0.4811 0.0000 ( 59291 PWs)   bands (ev):

   -72.8797 -72.8760 -44.4082 -44.3650 -44.2885 -44.2845 -44.2552 -44.2510
   -21.1258 -20.9197 -20.7316 -20.1695 -19.8126 -19.4750 -19.3247 -19.1835
   -19.0223 -18.7877 -18.6504 -18.5510 -18.1583 -18.0955 -17.9304 -17.7316
   -12.3574 -12.1224 -12.0529 -11.9145 -11.6893 -11.6665 -11.5608 -10.9499
   -10.8990 -10.6323 -10.5308  -9.8689  -9.7016  -9.3443  -9.1194  -8.6756
    -8.6315  -8.5616  -8.3970  -8.3731  -8.1697  -8.1318  -8.0720  -8.0579
    -7.6975  -7.6317  -7.5028  -7.4818  -7.3642  -7.1790  -7.0758  -6.8674
    -6.6304  -6.3964  -6.1831  -6.1660  -5.9810  -5.9374  -5.7920  -5.7514
    -5.4595  -5.4070  -5.2178  -5.0472  -4.4523  -4.3530  -4.0970  -3.7738
    -2.7246  -1.9480  -1.8698  -1.7710  -1.6181  -1.5823  -1.5228  -1.4992
    -1.4620  -1.4364  -1.3736  -0.8217   0.6016   0.9030   1.0715   1.1302
     1.2060   1.2333   1.3549   1.8312   1.9095   2.1136

          k = 0.5000-0.0962 0.0000 ( 59291 PWs)   bands (ev):

   -72.8797 -72.8760 -44.4082 -44.3649 -44.2885 -44.2845 -44.2552 -44.2510
   -21.1225 -20.9288 -20.7256 -20.1675 -19.8128 -19.4766 -19.3325 -19.1773
   -19.0235 -18.7879 -18.6392 -18.5583 -18.1454 -18.1138 -17.9265 -17.7314
   -12.3553 -12.1233 -12.0507 -11.9195 -11.7033 -11.6504 -11.5631 -10.9511
   -10.8958 -10.6299 -10.5338  -9.8666  -9.7021  -9.3453  -9.1187  -8.6637
    -8.6324  -8.5592  -8.4077  -8.4018  -8.1673  -8.1097  -8.0860  -8.0448
    -7.6929  -7.6324  -7.5016  -7.4834  -7.3575  -7.1803  -7.0768  -6.8674
    -6.6309  -6.4038  -6.2046  -6.1654  -5.9635  -5.9368  -5.7911  -5.7541
    -5.4608  -5.4054  -5.1926  -5.0638  -4.4270  -4.3862  -4.0918  -3.7738
    -2.7080  -1.9459  -1.8695  -1.7737  -1.6189  -1.5839  -1.5255  -1.5013
    -1.4650  -1.4409  -1.3719  -0.9474   0.7796   1.0357   1.1246   1.1812
     1.2812   1.3334   1.4925   1.7367   1.8162   1.8624

          k =-0.3333-0.3849 0.0000 ( 59291 PWs)   bands (ev):

   -72.8797 -72.8760 -44.4082 -44.3649 -44.2885 -44.2845 -44.2552 -44.2510
   -21.1236 -20.9257 -20.7279 -20.1673 -19.8148 -19.4748 -19.3266 -19.1810
   -19.0272 -18.7856 -18.6408 -18.5574 -18.1479 -18.1106 -17.9267 -17.7316
   -12.3567 -12.1201 -12.0538 -11.9173 -11.6910 -11.6645 -11.5620 -10.9507
   -10.8962 -10.6293 -10.5343  -9.8669  -9.7022  -9.3453  -9.1197  -8.6676
    -8.6306  -8.5613  -8.3994  -8.3945  -8.1692  -8.1179  -8.0718  -8.0606
    -7.6935  -7.6303  -7.5094  -7.4762  -7.3563  -7.1804  -7.0775  -6.8752
    -6.6287  -6.3965  -6.1866  -6.1682  -5.9758  -5.9353  -5.7913  -5.7656
    -5.4606  -5.3990  -5.1932  -5.0645  -4.4304  -4.3826  -4.0912  -3.7740
    -2.7135  -1.9467  -1.8696  -1.7728  -1.6183  -1.5834  -1.5244  -1.5007
    -1.4642  -1.4393  -1.3725  -0.9089   0.7172   1.0363   1.1066   1.1604
     1.2291   1.3289   1.3651   1.8019   1.8754   1.9103

          k = 0.5000 0.0962 0.0000 ( 59291 PWs)   bands (ev):

   -72.8797 -72.8760 -44.4082 -44.3649 -44.2885 -44.2845 -44.2552 -44.2510
   -21.1225 -20.9288 -20.7256 -20.1675 -19.8128 -19.4766 -19.3325 -19.1773
   -19.0235 -18.7878 -18.6392 -18.5583 -18.1454 -18.1138 -17.9265 -17.7314
   -12.3553 -12.1233 -12.0507 -11.9195 -11.7033 -11.6503 -11.5631 -10.9511
   -10.8958 -10.6299 -10.5339  -9.8666  -9.7021  -9.3453  -9.1187  -8.6637
    -8.6324  -8.5592  -8.4077  -8.4018  -8.1674  -8.1097  -8.0860  -8.0447
    -7.6929  -7.6324  -7.5017  -7.4835  -7.3575  -7.1804  -7.0768  -6.8674
    -6.6308  -6.4038  -6.2046  -6.1653  -5.9636  -5.9368  -5.7912  -5.7541
    -5.4608  -5.4054  -5.1926  -5.0638  -4.4270  -4.3862  -4.0918  -3.7738
    -2.7080  -1.9459  -1.8695  -1.7737  -1.6189  -1.5839  -1.5255  -1.5013
    -1.4650  -1.4409  -1.3719  -0.9474   0.7796   1.0357   1.1246   1.1813
     1.2812   1.3334   1.4925   1.7365   1.8162   1.8623

          k =-0.3333 0.3849 0.0000 ( 59291 PWs)   bands (ev):

   -72.8797 -72.8760 -44.4082 -44.3649 -44.2885 -44.2845 -44.2552 -44.2510
   -21.1236 -20.9257 -20.7279 -20.1673 -19.8148 -19.4748 -19.3267 -19.1810
   -19.0272 -18.7857 -18.6408 -18.5574 -18.1479 -18.1106 -17.9267 -17.7316
   -12.3567 -12.1201 -12.0539 -11.9173 -11.6910 -11.6645 -11.5620 -10.9507
   -10.8962 -10.6293 -10.5343  -9.8670  -9.7021  -9.3453  -9.1197  -8.6676
    -8.6307  -8.5613  -8.3994  -8.3945  -8.1692  -8.1179  -8.0718  -8.0606
    -7.6934  -7.6303  -7.5094  -7.4762  -7.3563  -7.1804  -7.0776  -6.8752
    -6.6287  -6.3965  -6.1866  -6.1683  -5.9758  -5.9354  -5.7912  -5.7657
    -5.4605  -5.3990  -5.1932  -5.0645  -4.4305  -4.3826  -4.0912  -3.7740
    -2.7135  -1.9467  -1.8696  -1.7728  -1.6183  -1.5834  -1.5244  -1.5007
    -1.4642  -1.4393  -1.3725  -0.9089   0.7172   1.0363   1.1066   1.1605
     1.2291   1.3289   1.3651   1.8019   1.8755   1.9109

          k =-0.1667-0.0962 0.0000 ( 59226 PWs)   bands (ev):

   -72.8797 -72.8760 -44.4082 -44.3650 -44.2885 -44.2844 -44.2552 -44.2510
   -21.3219 -20.5451 -20.3536 -20.3470 -19.9964 -19.9899 -19.8131 -18.7368
   -18.7324 -18.3873 -18.3703 -18.3666 -18.2817 -18.2639 -18.0845 -18.0788
   -12.5193 -12.5078 -12.4162 -11.5899 -11.5850 -11.4403 -11.4234 -10.9343
   -10.9322  -9.9371  -9.9353  -9.6844  -9.3868  -9.3776  -9.2384  -9.2365
    -9.0501  -9.0484  -8.9308  -8.3313  -8.3303  -7.9117  -7.9058  -7.8894
    -7.8533  -7.7786  -7.6152  -7.5905  -7.1397  -7.1024  -6.9680  -6.8960
    -6.8938  -6.8576  -6.5387  -6.5371  -6.2657  -5.3532  -5.3294  -5.1514
    -5.0736  -4.8196  -4.7960  -4.7654  -4.6288  -4.6050  -4.3586  -4.3394
    -2.7322  -1.9481  -1.8696  -1.7778  -1.6211  -1.5831  -1.5169  -1.4974
    -1.4618  -1.4370  -1.3722  -0.8132   0.7999   0.9027   1.0240   1.1726
     1.2679   1.3203   1.5594   1.5766   1.6889   1.8774

          k =-0.0000-0.1925 0.0000 ( 59226 PWs)   bands (ev):

   -72.8797 -72.8760 -44.4081 -44.3650 -44.2885 -44.2844 -44.2552 -44.2510
   -21.3221 -20.5390 -20.3684 -20.3426 -19.9984 -19.9789 -19.8176 -18.7433
   -18.7212 -18.4140 -18.3735 -18.3584 -18.2613 -18.2610 -18.0946 -18.0750
   -12.5208 -12.5073 -12.4153 -11.5957 -11.5801 -11.4385 -11.4226 -10.9372
   -10.9311  -9.9406  -9.9320  -9.6845  -9.3865  -9.3758  -9.2399  -9.2361
    -9.0498  -9.0493  -8.9315  -8.3337  -8.3271  -7.9119  -7.9053  -7.8686
    -7.8506  -7.7806  -7.6517  -7.5918  -7.1247  -7.0872  -6.9662  -6.9006
    -6.8912  -6.8719  -6.5425  -6.5323  -6.2665  -5.3569  -5.3142  -5.1517
    -5.0732  -4.8713  -4.7933  -4.7548  -4.6003  -4.5952  -4.3731  -4.3361
    -2.7374  -1.9489  -1.8697  -1.7769  -1.6205  -1.5826  -1.5164  -1.4970
    -1.4612  -1.4354  -1.3727  -0.7625   0.6951   0.8337   1.0205   1.1457
     1.2170   1.3769   1.5401   1.6011   1.6874   1.9518

          k = 0.5000-0.8660 0.0000 ( 59292 PWs)   bands (ev):

   -72.8797 -72.8760 -44.4082 -44.3650 -44.2885 -44.2845 -44.2551 -44.2509
   -21.0610 -21.0528 -20.4776 -20.4723 -19.4392 -19.4331 -19.4171 -19.4145
   -19.0023 -18.9946 -18.3371 -18.3350 -18.3259 -18.3105 -17.8007 -17.7969
   -12.0817 -12.0781 -12.0735 -12.0618 -11.8863 -11.8818 -11.3386 -11.3344
   -10.2430 -10.2414 -10.1443 -10.1401 -10.1370 -10.1341  -8.5913  -8.5608
    -8.5574  -8.5554  -8.5536  -8.5449  -7.8728  -7.8708  -7.8699  -7.8662
    -7.8303  -7.8277  -7.7862  -7.7630  -7.5008  -7.4919  -6.6188  -6.6171
    -6.3684  -6.3331  -6.3206  -6.2989  -6.1999  -6.1935  -5.7146  -5.7078
    -5.5562  -5.5478  -4.7347  -4.7222  -4.7097  -4.6975  -3.8923  -3.8769
    -2.7078  -1.9459  -1.8695  -1.7737  -1.6184  -1.5839  -1.5256  -1.5013
    -1.4650  -1.4408  -1.3719  -0.9476   0.7975   1.0576   1.0865   1.2072
     1.3947   1.5171   1.5789   1.6073   1.6280   1.7394

          k =-1.0000 0.0000 0.0000 ( 59292 PWs)   bands (ev):

   -72.8797 -72.8760 -44.4082 -44.3650 -44.2885 -44.2845 -44.2552 -44.2509
   -21.0856 -21.0249 -20.4898 -20.4656 -19.4524 -19.4171 -19.4149 -19.4120
   -19.0244 -18.9757 -18.3865 -18.3374 -18.2998 -18.2847 -17.8101 -17.7899
   -12.1218 -12.0814 -12.0510 -12.0372 -11.8938 -11.8748 -11.3597 -11.3149
   -10.2599 -10.2422 -10.1423 -10.1400 -10.1310 -10.1269  -8.6401  -8.5879
    -8.5651  -8.5334  -8.5229  -8.4965  -7.8908  -7.8828  -7.8678  -7.8586
    -7.8266  -7.8191  -7.8047  -7.7583  -7.5244  -7.4711  -6.6238  -6.6090
    -6.3815  -6.3150  -6.3097  -6.2913  -6.2185  -6.1781  -5.7471  -5.6853
    -5.5765  -5.5278  -4.8290  -4.7190  -4.6763  -4.6424  -3.9040  -3.8680
    -2.7300  -1.9485  -1.8699  -1.7701  -1.6180  -1.5818  -1.5223  -1.4983
    -1.4606  -1.4350  -1.3740  -0.7716   0.5576   0.7835   1.0887   1.1308
     1.1489   1.4537   1.5479   1.6192   1.6315   1.9403

 ------ SPIN DOWN ----------


          k = 0.1667 0.2887 0.0000 ( 59267 PWs)   bands (ev):

   -68.6668 -68.6624 -40.3143 -40.2616 -40.1063 -40.1014 -40.0337 -40.0284
   -21.2519 -20.6677 -20.6584 -20.1144 -20.0959 -19.5948 -19.5847 -19.1040
   -18.7042 -18.6935 -18.4668 -18.4497 -18.1987 -18.0907 -18.0806 -17.8534
   -12.4906 -12.2162 -12.2041 -11.8280 -11.8230 -11.6648 -11.1991 -11.1936
   -10.3979 -10.3734 -10.1246 -10.1191  -9.5955  -9.5936  -8.8369  -8.8254
    -8.8232  -8.7746  -8.7652  -8.6022  -8.2031  -8.0330  -8.0172  -7.8369
    -7.8316  -7.4442  -7.4416  -7.2784  -7.2458  -7.2155  -7.2112  -6.9713
    -6.9562  -6.5494  -6.5409  -6.1599  -6.1583  -5.8634  -5.4238  -5.2828
    -5.2699  -5.2058  -4.9133  -4.8883  -4.4979  -4.3505  -4.3366  -3.9733
    -1.3930   0.3459   0.9295   1.0789   1.1348   1.2261   1.2997   1.3352
     1.4322   1.4953   1.5413   1.5722   1.6079   1.7379   1.8924   2.0126
     2.0288   2.0928   2.1461   2.1797   2.2380   2.3016

          k = 0.1667-0.4811 0.0000 ( 59291 PWs)   bands (ev):

   -68.6668 -68.6624 -40.3143 -40.2616 -40.1063 -40.1014 -40.0337 -40.0284
   -21.1217 -20.9167 -20.7278 -20.1656 -19.8090 -19.4713 -19.3212 -19.1795
   -19.0186 -18.7839 -18.6452 -18.5480 -18.1528 -18.0933 -17.9262 -17.7275
   -12.3549 -12.1200 -12.0508 -11.9123 -11.6875 -11.6639 -11.5585 -10.9474
   -10.8962 -10.6296 -10.5285  -9.8659  -9.6992  -9.3415  -9.1170  -8.6536
    -8.6291  -8.5587  -8.3949  -8.3621  -8.1674  -8.1148  -8.0699  -8.0554
    -7.6948  -7.6293  -7.5005  -7.4796  -7.3472  -7.1761  -7.0735  -6.8525
    -6.6273  -6.3818  -6.1686  -6.1634  -5.9658  -5.9344  -5.7894  -5.7375
    -5.4570  -5.3922  -5.1972  -5.0386  -4.4335  -4.3466  -4.0836  -3.7612
    -1.3828   0.3336   0.9011   1.0165   1.0802   1.1385   1.2255   1.3155
     1.3718   1.4699   1.5287   1.7306   1.8007   1.8345   1.9113   2.0657
     2.1010   2.1351   2.1528   2.2053   2.2752   2.2962

          k = 0.1667-0.0962 0.0000 ( 59226 PWs)   bands (ev):

   -68.6668 -68.6624 -40.3142 -40.2616 -40.1063 -40.1014 -40.0337 -40.0284
   -21.3183 -20.5409 -20.3502 -20.3437 -19.9921 -19.9864 -19.8099 -18.7323
   -18.7285 -18.3829 -18.3671 -18.3624 -18.2773 -18.2599 -18.0807 -18.0757
   -12.5166 -12.5057 -12.4140 -11.5874 -11.5829 -11.4374 -11.4214 -10.9317
   -10.9298  -9.9345  -9.9330  -9.6815  -9.3842  -9.3753  -9.2354  -9.2338
    -9.0479  -9.0460  -8.9132  -8.3283  -8.3274  -7.9089  -7.9035  -7.8687
    -7.8496  -7.7763  -7.5996  -7.5802  -7.1168  -7.0912  -6.9654  -6.8935
    -6.8917  -6.8476  -6.5362  -6.5348  -6.2632  -5.3331  -5.3164  -5.1487
    -5.0709  -4.8040  -4.7825  -4.7511  -4.6151  -4.5935  -4.3437  -4.3300
    -1.4033   0.3605   0.9542   1.0413   1.1043   1.1605   1.2709   1.3619
     1.4556   1.5090   1.5802   1.6356   1.7826   1.8393   1.9063   1.9323
     2.0202   2.0816   2.1113   2.1381   2.1953   2.3101

          k =-0.5000-0.8660 0.0000 ( 59292 PWs)   bands (ev):

   -68.6668 -68.6624 -40.3143 -40.2616 -40.1064 -40.1014 -40.0337 -40.0284
   -21.0582 -21.0481 -20.4741 -20.4689 -19.4345 -19.4290 -19.4135 -19.4114
   -18.9998 -18.9899 -18.3325 -18.3309 -18.3245 -18.3047 -17.7965 -17.7932
   -12.0786 -12.0757 -12.0721 -12.0590 -11.8841 -11.8799 -11.3366 -11.3316
   -10.2404 -10.2390 -10.1412 -10.1373 -10.1346 -10.1317  -8.5659  -8.5554
    -8.5547  -8.5514  -8.5483  -8.5416  -7.8703  -7.8684  -7.8673  -7.8640
    -7.8266  -7.8247  -7.7703  -7.7520  -7.4991  -7.4890  -6.6162  -6.6147
    -6.3413  -6.3188  -6.3062  -6.2896  -6.1977  -6.1903  -5.7018  -5.6946
    -5.5543  -5.5445  -4.7170  -4.7099  -4.6929  -4.6892  -3.8773  -3.8669
    -1.3548   0.0864   0.9193   1.0175   1.1737   1.2265   1.3274   1.3998
     1.4564   1.5491   1.5826   1.7189   1.7526   1.8989   1.9163   1.9454
     1.9530   2.0728   2.1632   2.2132   2.2804   2.3302

          k =-0.1667 0.2887 0.0000 ( 59267 PWs)   bands (ev):

   -68.6668 -68.6624 -40.3143 -40.2616 -40.1063 -40.1014 -40.0337 -40.0284
   -21.2519 -20.6677 -20.6584 -20.1144 -20.0959 -19.5948 -19.5847 -19.1040
   -18.7043 -18.6935 -18.4668 -18.4497 -18.1987 -18.0907 -18.0806 -17.8534
   -12.4906 -12.2162 -12.2041 -11.8280 -11.8231 -11.6648 -11.1992 -11.1936
   -10.3979 -10.3734 -10.1247 -10.1191  -9.5955  -9.5935  -8.8369  -8.8254
    -8.8232  -8.7747  -8.7652  -8.6022  -8.2031  -8.0330  -8.0172  -7.8369
    -7.8316  -7.4442  -7.4416  -7.2784  -7.2459  -7.2155  -7.2111  -6.9713
    -6.9563  -6.5494  -6.5409  -6.1600  -6.1582  -5.8634  -5.4239  -5.2828
    -5.2700  -5.2057  -4.9133  -4.8883  -4.4980  -4.3505  -4.3366  -3.9733
    -1.3930   0.3459   0.9295   1.0789   1.1348   1.2261   1.2997   1.3351
     1.4322   1.4954   1.5413   1.5722   1.6079   1.7379   1.8924   2.0127
     2.0287   2.0930   2.1460   2.1797   2.2380   2.3016

          k = 0.3333 0.0000 0.0000 ( 59267 PWs)   bands (ev):

   -68.6668 -68.6624 -40.3143 -40.2616 -40.1064 -40.1014 -40.0337 -40.0284
   -21.2514 -20.6914 -20.6345 -20.1138 -20.0951 -19.6184 -19.5629 -19.1059
   -18.7185 -18.6744 -18.4681 -18.4503 -18.1947 -18.1111 -18.0662 -17.8526
   -12.4897 -12.2168 -12.2038 -11.8371 -11.8166 -11.6629 -11.2162 -11.1765
   -10.3969 -10.3733 -10.1367 -10.1079  -9.6014  -9.5863  -8.8387  -8.8294
    -8.8153  -8.7949  -8.7463  -8.6029  -8.2050  -8.0833  -7.9667  -7.8351
    -7.8310  -7.4497  -7.4363  -7.2796  -7.2404  -7.2240  -7.2021  -6.9717
    -6.9574  -6.6017  -6.4943  -6.1625  -6.1549  -5.8686  -5.4237  -5.2982
    -5.2453  -5.2061  -4.9204  -4.8836  -4.4907  -4.3767  -4.3203  -3.9725
    -1.3754   0.1707   0.9711   1.0447   1.1800   1.2287   1.2753   1.4397
     1.4442   1.4843   1.5600   1.6369   1.8075   1.8743   1.8883   1.9232
     2.0289   2.0700   2.1470   2.1590   2.2538   2.3325

          k =-0.1667-0.4811 0.0000 ( 59291 PWs)   bands (ev):

   -68.6668 -68.6624 -40.3143 -40.2616 -40.1063 -40.1014 -40.0337 -40.0284
   -21.1217 -20.9167 -20.7278 -20.1656 -19.8090 -19.4713 -19.3212 -19.1795
   -19.0186 -18.7839 -18.6452 -18.5480 -18.1528 -18.0933 -17.9262 -17.7275
   -12.3549 -12.1200 -12.0508 -11.9123 -11.6875 -11.6639 -11.5585 -10.9474
   -10.8962 -10.6296 -10.5285  -9.8659  -9.6992  -9.3415  -9.1170  -8.6536
    -8.6290  -8.5587  -8.3948  -8.3621  -8.1673  -8.1148  -8.0699  -8.0554
    -7.6948  -7.6293  -7.5004  -7.4795  -7.3472  -7.1761  -7.0735  -6.8525
    -6.6273  -6.3818  -6.1686  -6.1634  -5.9658  -5.9343  -5.7894  -5.7375
    -5.4570  -5.3922  -5.1972  -5.0386  -4.4335  -4.3466  -4.0836  -3.7613
    -1.3828   0.3336   0.9011   1.0165   1.0802   1.1385   1.2255   1.3155
     1.3718   1.4698   1.5287   1.7306   1.8007   1.8345   1.9112   2.0658
     2.1010   2.1351   2.1528   2.2052   2.2755   2.2961

          k = 0.5000-0.0962 0.0000 ( 59291 PWs)   bands (ev):

   -68.6668 -68.6624 -40.3143 -40.2616 -40.1063 -40.1014 -40.0337 -40.0284
   -21.1188 -20.9247 -20.7225 -20.1639 -19.8091 -19.4726 -19.3279 -19.1742
   -19.0196 -18.7840 -18.6357 -18.5542 -18.1418 -18.1088 -17.9230 -17.7274
   -12.3531 -12.1207 -12.0487 -11.9168 -11.7003 -11.6490 -11.5606 -10.9484
   -10.8934 -10.6275 -10.5312  -9.8639  -9.6998  -9.3424  -9.1164  -8.6450
    -8.6298  -8.5566  -8.3994  -8.3867  -8.1652  -8.0990  -8.0827  -8.0435
    -7.6907  -7.6300  -7.4994  -7.4810  -7.3422  -7.1773  -7.0744  -6.8526
    -6.6277  -6.3867  -6.1844  -6.1630  -5.9536  -5.9338  -5.7886  -5.7392
    -5.4582  -5.3915  -5.1782  -5.0508  -4.4136  -4.3720  -4.0799  -3.7613
    -1.3549   0.0881   0.9147   1.0172   1.1220   1.1788   1.2555   1.3091
     1.3948   1.6378   1.7099   1.7427   1.8486   1.9235   1.9390   1.9868
     2.0343   2.1301   2.1885   2.2331   2.2741   2.3357

          k =-0.3333-0.3849 0.0000 ( 59291 PWs)   bands (ev):

   -68.6668 -68.6624 -40.3143 -40.2616 -40.1063 -40.1014 -40.0337 -40.0284
   -21.1198 -20.9219 -20.7245 -20.1637 -19.8109 -19.4711 -19.3228 -19.1773
   -19.0229 -18.7821 -18.6370 -18.5536 -18.1439 -18.1063 -17.9231 -17.7275
   -12.3543 -12.1179 -12.0515 -11.9150 -11.6890 -11.6620 -11.5596 -10.9480
   -10.8937 -10.6269 -10.5317  -9.8642  -9.6998  -9.3424  -9.1173  -8.6478
    -8.6283  -8.5583  -8.3965  -8.3779  -8.1669  -8.1049  -8.0699  -8.0577
    -7.6912  -7.6281  -7.5063  -7.4746  -7.3415  -7.1774  -7.0750  -6.8581
    -6.6257  -6.3817  -6.1711  -6.1652  -5.9623  -5.9326  -5.7888  -5.7478
    -5.4580  -5.3870  -5.1790  -5.0508  -4.4165  -4.3691  -4.0796  -3.7615
    -1.3645   0.1572   0.9069   1.0108   1.1276   1.1800   1.2351   1.3157
     1.3889   1.5619   1.6881   1.7638   1.8063   1.8971   1.9535   1.9978
     2.0573   2.0885   2.1484   2.2102   2.2855   2.3109

          k = 0.5000 0.0962 0.0000 ( 59291 PWs)   bands (ev):

   -68.6668 -68.6624 -40.3143 -40.2616 -40.1063 -40.1014 -40.0337 -40.0284
   -21.1188 -20.9247 -20.7225 -20.1639 -19.8091 -19.4726 -19.3279 -19.1742
   -19.0196 -18.7839 -18.6357 -18.5543 -18.1419 -18.1088 -17.9230 -17.7274
   -12.3531 -12.1207 -12.0487 -11.9168 -11.7003 -11.6490 -11.5606 -10.9484
   -10.8934 -10.6275 -10.5313  -9.8639  -9.6998  -9.3424  -9.1163  -8.6450
    -8.6298  -8.5566  -8.3994  -8.3867  -8.1652  -8.0990  -8.0827  -8.0435
    -7.6907  -7.6299  -7.4994  -7.4811  -7.3422  -7.1774  -7.0743  -6.8526
    -6.6276  -6.3867  -6.1844  -6.1629  -5.9536  -5.9338  -5.7887  -5.7392
    -5.4582  -5.3915  -5.1782  -5.0508  -4.4136  -4.3720  -4.0800  -3.7613
    -1.3549   0.0881   0.9147   1.0172   1.1220   1.1788   1.2554   1.3091
     1.3947   1.6378   1.7098   1.7427   1.8486   1.9235   1.9389   1.9868
     2.0343   2.1301   2.1882   2.2326   2.2732   2.3356

          k =-0.3333 0.3849 0.0000 ( 59291 PWs)   bands (ev):

   -68.6668 -68.6624 -40.3143 -40.2616 -40.1063 -40.1014 -40.0337 -40.0284
   -21.1198 -20.9219 -20.7245 -20.1637 -19.8109 -19.4711 -19.3228 -19.1773
   -19.0229 -18.7821 -18.6370 -18.5536 -18.1438 -18.1063 -17.9231 -17.7276
   -12.3542 -12.1179 -12.0516 -11.9150 -11.6890 -11.6620 -11.5596 -10.9481
   -10.8936 -10.6269 -10.5317  -9.8642  -9.6998  -9.3424  -9.1173  -8.6478
    -8.6283  -8.5583  -8.3965  -8.3779  -8.1669  -8.1049  -8.0699  -8.0577
    -7.6912  -7.6281  -7.5063  -7.4746  -7.3415  -7.1774  -7.0750  -6.8581
    -6.6258  -6.3817  -6.1711  -6.1653  -5.9622  -5.9327  -5.7887  -5.7478
    -5.4579  -5.3870  -5.1790  -5.0508  -4.4165  -4.3691  -4.0795  -3.7615
    -1.3645   0.1572   0.9069   1.0108   1.1276   1.1800   1.2351   1.3157
     1.3889   1.5619   1.6881   1.7638   1.8063   1.8971   1.9535   1.9977
     2.0574   2.0885   2.1484   2.2103   2.2855   2.3108

          k =-0.1667-0.0962 0.0000 ( 59226 PWs)   bands (ev):

   -68.6668 -68.6624 -40.3142 -40.2616 -40.1063 -40.1014 -40.0337 -40.0284
   -21.3183 -20.5409 -20.3502 -20.3437 -19.9921 -19.9863 -19.8099 -18.7323
   -18.7285 -18.3829 -18.3671 -18.3624 -18.2773 -18.2599 -18.0807 -18.0757
   -12.5167 -12.5057 -12.4140 -11.5874 -11.5829 -11.4374 -11.4214 -10.9317
   -10.9298  -9.9345  -9.9331  -9.6815  -9.3841  -9.3753  -9.2354  -9.2338
    -9.0479  -9.0460  -8.9132  -8.3283  -8.3274  -7.9088  -7.9035  -7.8687
    -7.8495  -7.7764  -7.5996  -7.5802  -7.1168  -7.0912  -6.9655  -6.8935
    -6.8917  -6.8476  -6.5361  -6.5348  -6.2633  -5.3331  -5.3164  -5.1486
    -5.0710  -4.8040  -4.7825  -4.7511  -4.6151  -4.5935  -4.3437  -4.3300
    -1.4033   0.3605   0.9542   1.0413   1.1043   1.1605   1.2709   1.3620
     1.4556   1.5090   1.5802   1.6356   1.7826   1.8393   1.9063   1.9323
     2.0202   2.0815   2.1114   2.1380   2.1953   2.3101

          k =-0.0000-0.1925 0.0000 ( 59226 PWs)   bands (ev):

   -68.6668 -68.6624 -40.3142 -40.2616 -40.1064 -40.1014 -40.0337 -40.0284
   -21.3184 -20.5356 -20.3637 -20.3393 -19.9947 -19.9761 -19.8139 -18.7388
   -18.7179 -18.4068 -18.3694 -18.3548 -18.2592 -18.2582 -18.0903 -18.0714
   -12.5175 -12.5057 -12.4132 -11.5930 -11.5782 -11.4354 -11.4210 -10.9345
   -10.9287  -9.9380  -9.9298  -9.6817  -9.3841  -9.3735  -9.2369  -9.2332
    -9.0475  -9.0470  -8.9137  -8.3307  -8.3242  -7.9094  -7.9031  -7.8561
    -7.8446  -7.7781  -7.6268  -7.5801  -7.1093  -7.0769  -6.9639  -6.8980
    -6.8890  -6.8580  -6.5400  -6.5302  -6.2639  -5.3384  -5.3027  -5.1490
    -5.0706  -4.8446  -4.7791  -4.7423  -4.5944  -4.5857  -4.3567  -4.3251
    -1.4115   0.4931   0.9212   1.0381   1.0732   1.1586   1.2711   1.3511
     1.3966   1.4535   1.5248   1.6060   1.7560   1.8326   1.8748   2.0034
     2.0438   2.0525   2.1294   2.1440   2.1906   2.2656

          k = 0.5000-0.8660 0.0000 ( 59292 PWs)   bands (ev):

   -68.6668 -68.6624 -40.3143 -40.2616 -40.1064 -40.1014 -40.0337 -40.0284
   -21.0582 -21.0481 -20.4741 -20.4689 -19.4345 -19.4290 -19.4135 -19.4114
   -18.9999 -18.9898 -18.3325 -18.3309 -18.3246 -18.3047 -17.7965 -17.7932
   -12.0786 -12.0757 -12.0722 -12.0589 -11.8841 -11.8799 -11.3366 -11.3315
   -10.2404 -10.2391 -10.1413 -10.1373 -10.1346 -10.1317  -8.5659  -8.5555
    -8.5547  -8.5514  -8.5483  -8.5415  -7.8703  -7.8684  -7.8673  -7.8640
    -7.8266  -7.8247  -7.7703  -7.7520  -7.4992  -7.4890  -6.6161  -6.6146
    -6.3413  -6.3188  -6.3062  -6.2896  -6.1977  -6.1901  -5.7019  -5.6946
    -5.5544  -5.5446  -4.7170  -4.7099  -4.6929  -4.6891  -3.8773  -3.8669
    -1.3548   0.0864   0.9193   1.0175   1.1737   1.2265   1.3274   1.3998
     1.4564   1.5491   1.5825   1.7188   1.7526   1.8989   1.9163   1.9455
     1.9531   2.0728   2.1633   2.2134   2.2805   2.3300

          k =-1.0000 0.0000 0.0000 ( 59292 PWs)   bands (ev):

   -68.6668 -68.6624 -40.3143 -40.2616 -40.1063 -40.1014 -40.0337 -40.0284
   -21.0803 -21.0230 -20.4853 -20.4624 -19.4474 -19.4138 -19.4119 -19.4087
   -19.0185 -18.9740 -18.3784 -18.3323 -18.2977 -18.2842 -17.8055 -17.7862
   -12.1165 -12.0794 -12.0497 -12.0362 -11.8913 -11.8732 -11.3563 -11.3133
   -10.2561 -10.2394 -10.1396 -10.1375 -10.1286 -10.1252  -8.6112  -8.5839
    -8.5618  -8.5322  -8.5223  -8.4926  -7.8869  -7.8798  -7.8652  -7.8566
    -7.8183  -7.8172  -7.7881  -7.7470  -7.5207  -7.4700  -6.6211  -6.6070
    -6.3567  -6.3006  -6.2985  -6.2834  -6.2145  -6.1761  -5.7281  -5.6747
    -5.5724  -5.5267  -4.7991  -4.7028  -4.6687  -4.6412  -3.8886  -3.8574
    -1.3914   0.4586   0.9042   1.0153   1.0790   1.1812   1.2531   1.3136
     1.3350   1.3904   1.6126   1.6329   1.6857   1.8038   1.8243   1.9021
     2.1120   2.1290   2.1366   2.1822   2.2971   2.3199

     the Fermi energy is    -1.1900 ev

!    total energy              =   -1133.82388287 Ry

     total all-electron energy =     -6753.499586 Ry
     estimated scf accuracy    <       0.00000002 Ry
     smearing contrib. (-TS)   =      -0.00000000 Ry
     internal energy E=F+TS    =   -1133.82388287 Ry

     The total energy is F=E-TS. E is the sum of the following terms:
     one-electron contribution =   -3945.81037651 Ry
     hartree contribution      =    2001.06503629 Ry
     xc contribution           =    -186.01048050 Ry
     ewald contribution        =    1356.30834475 Ry
     DFT-D3 Dispersion         =      -0.13612006 Ry
     one-center paw contrib.   =    -359.24028684 Ry

     total magnetization       =    10.00 Bohr mag/cell
     absolute magnetization    =    10.01 Bohr mag/cell

     convergence has been achieved in  15 iterations

     Writing output data file ./mytmp/Crdimer0.15-0.4.save/
 
     init_run     :     18.91s CPU     20.09s WALL (       1 calls)
     electrons    :    539.37s CPU    587.14s WALL (       1 calls)

     Called by init_run:
     wfcinit      :     13.95s CPU     14.56s WALL (       1 calls)
     potinit      :      1.50s CPU      1.59s WALL (       1 calls)
     hinit0       :      1.50s CPU      1.57s WALL (       1 calls)

     Called by electrons:
     c_bands      :    423.45s CPU    450.87s WALL (      15 calls)
     sum_band     :     83.83s CPU     96.16s WALL (      15 calls)
     v_of_rho     :      6.13s CPU      6.91s WALL (      16 calls)
     newd         :     17.53s CPU     24.90s WALL (      16 calls)
     PAW_pot      :      7.84s CPU      7.96s WALL (      16 calls)
     mix_rho      :      1.08s CPU      1.11s WALL (      15 calls)

     Called by c_bands:
     init_us_2    :      5.42s CPU      5.49s WALL (     930 calls)
     cegterg      :    410.26s CPU    437.57s WALL (     450 calls)

     Called by *egterg:
     cdiaghg      :     26.72s CPU     42.68s WALL (    2972 calls)
     h_psi        :    258.00s CPU    267.93s WALL (    3002 calls)
     s_psi        :     28.77s CPU     28.89s WALL (    3002 calls)
     g_psi        :      0.75s CPU      0.78s WALL (    2522 calls)

     Called by h_psi:
     h_psi:calbec :     30.21s CPU     30.93s WALL (    3002 calls)
     vloc_psi     :    196.39s CPU    205.37s WALL (    3002 calls)
     add_vuspsi   :     29.29s CPU     29.50s WALL (    3002 calls)

     General routines
     calbec       :     40.28s CPU     41.19s WALL (    3452 calls)
     fft          :      9.04s CPU     13.69s WALL (     394 calls)
     ffts         :      0.12s CPU      0.13s WALL (      62 calls)
     fftw         :    202.90s CPU    212.01s WALL (  266214 calls)
     interpolate  :      0.43s CPU      0.48s WALL (      32 calls)
 
     Parallel routines
     fft_scatt_xy :     32.75s CPU     34.04s WALL (  266670 calls)
     fft_scatt_yz :     84.52s CPU     93.32s WALL (  266670 calls)
 
     PWSCF        :   9m20.35s CPU  10m11.80s WALL

 
   This run was terminated on:  15:48: 3  31Mar2021            

=------------------------------------------------------------------------------=
   JOB DONE.
=------------------------------------------------------------------------------=
