
     Program PWSCF v.6.7MaX starts on 31Mar2021 at 11:29:48 

     This program is part of the open-source Quantum ESPRESSO suite
     for quantum simulation of materials; please cite
         "P. Giannozzi et al., J. Phys.:Condens. Matter 21 395502 (2009);
         "P. Giannozzi et al., J. Phys.:Condens. Matter 29 465901 (2017);
          URL http://www.quantum-espresso.org", 
     in publications or presentations arising from this work. More details at
     http://www.quantum-espresso.org/quote

     Parallel version (MPI), running on    48 processors

     MPI processes distributed on     1 nodes
     R & G space division:  proc/nbgrp/npool/nimage =      48
     Reading input from Crdimer0.11-0.3.scf.in

     Current dimensions of program PWSCF are:
     Max number of different atomic species (ntypx) = 10
     Max number of k-points (npk) =  40000
     Max angular momentum in pseudopotentials (lmaxx) =  3
     file N.pbe-n-kjpaw_psl.1.0.0.UPF: wavefunction(s)  2S renormalized
     file Cr.pbe-spn-kjpaw_psl.1.0.0.UPF: wavefunction(s)  3S 3P 3D renormalized
     file Cr.pbe-spn-kjpaw_psl.1.0.0.UPF: wavefunction(s)  3S 3P 3D renormalized

     --------------------------------------------
     Parameters for DFT-D3 Dispersion Correction:
     --------------------------------------------
       Reference C6 values for interpolation: 

         atom   Coordination number   C6
         B          0.000           214.36
         B          0.971           150.74
         B          1.944           106.23
         B          2.913            62.89
         B          4.586            56.06
         N          0.000            50.54
         N          0.994            44.25
         N          2.014            39.35
         N          2.990            31.16
         Cr1        0.000          1381.48
         Cr1        1.827           571.38
         Cr1       10.619           306.69
         Cr2        0.000          1381.48
         Cr2        1.827           571.38
         Cr2       10.619           306.69

       Values used:

         atom   Coordination number  R0_AB[au]  C6      C8
         B          3.337            3.039     62.89   2505.96
         B          3.335            3.039     62.89   2506.00
         B          3.338            3.039     62.89   2505.94
         B          3.335            3.039     62.89   2506.01
         B          3.381            3.039     62.86   2504.70
         B          3.335            3.039     62.89   2506.01
         N          3.134            2.478     31.22    688.69
         N          3.136            2.478     31.22    688.68
         N          3.140            2.478     31.22    688.64
         N          3.134            2.478     31.22    688.69
         N          3.164            2.478     31.21    688.45
         N          3.134            2.478     31.22    688.70
         N          3.144            2.478     31.21    688.60
         N          3.134            2.478     31.22    688.70
         N          3.134            2.478     31.22    688.70
         B          3.339            3.039     62.89   2505.90
         B          3.335            3.039     62.89   2506.00
         B          3.335            3.039     62.89   2506.01
         B          3.381            3.039     62.86   2504.70
         B          3.337            3.039     62.89   2505.96
         B          3.339            3.039     62.89   2505.90
         N          3.144            2.478     31.21    688.60
         B          3.335            3.039     62.89   2506.00
         B          3.346            3.039     62.88   2505.73
         B          3.336            3.039     62.89   2505.98
         N          3.134            2.478     31.22    688.70
         N          3.136            2.478     31.22    688.68
         N          3.134            2.478     31.22    688.70
         N          3.134            2.478     31.22    688.70
         N          3.140            2.478     31.22    688.64
         N          3.134            2.478     31.22    688.69
         B          3.336            3.039     62.89   2505.98
         Cr1        1.097            3.252    609.52  56251.44
         Cr2        1.097            3.252    609.52  56251.44

         Molecular C6 ( Ry / a.u.^6 ) =     68861.55


     Subspace diagonalization in iterative solution of the eigenvalue problem:
     one sub-group per band group will be used
     scalapack distributed-memory algorithm (size of sub-group:  6*  6 procs)

 
     Parallelization info
     --------------------
     sticks:   dense  smooth     PW     G-vecs:    dense   smooth      PW
     Min         235      98     26                36277     9874    1408
     Max         236      99     27                36282     9883    1425
     Sum       11311    4741   1285              1741401   474235   68095
 


     bravais-lattice index     =            4
     lattice parameter (alat)  =      18.9275  a.u.
     unit-cell volume          =   10553.3021 (a.u.)^3
     number of atoms/cell      =           34
     number of atomic types    =            4
     number of electrons       =       156.00
     number of Kohn-Sham states=           94
     kinetic-energy cutoff     =      48.0000  Ry
     charge density cutoff     =     457.0000  Ry
     scf convergence threshold =      1.0E-07
     mixing beta               =       0.5000
     number of iterations used =            8  plain     mixing
     Exchange-correlation= SLA  PW   PBX  PBC
                           (   1   4   3   4   0   0   0)

     celldm(1)=  18.927497  celldm(2)=   0.000000  celldm(3)=   1.797125
     celldm(4)=   0.000000  celldm(5)=   0.000000  celldm(6)=   0.000000

     crystal axes: (cart. coord. in units of alat)
               a(1) = (   1.000000   0.000000   0.000000 )  
               a(2) = (  -0.500000   0.866025   0.000000 )  
               a(3) = (   0.000000   0.000000   1.797125 )  

     reciprocal axes: (cart. coord. in units 2 pi/alat)
               b(1) = (  1.000000  0.577350  0.000000 )  
               b(2) = (  0.000000  1.154701  0.000000 )  
               b(3) = (  0.000000  0.000000  0.556444 )  


     PseudoPot. # 1 for B  read from file:
     /home/sf05/q-e-qe-6.7MaX-Release/pseudo/B.pbe-n-kjpaw_psl.1.0.0.UPF
     MD5 check sum: d9c678ba5d3b2fd7b74e61139c9288d8
     Pseudo is Projector augmented-wave + core cor, Zval =  3.0
     Generated using "atomic" code by A. Dal Corso  v.5.1.2
     Shape of augmentation charge: PSQ
     Using radial grid of 1059 points,  4 beta functions with: 
                l(1) =   0
                l(2) =   0
                l(3) =   1
                l(4) =   1
     Q(r) pseudized with 0 coefficients 


     PseudoPot. # 2 for N  read from file:
     /home/sf05/q-e-qe-6.7MaX-Release/pseudo/N.pbe-n-kjpaw_psl.1.0.0.UPF
     MD5 check sum: e0e4e94a9c4025c5b51bd7d8793849bd
     Pseudo is Projector augmented-wave + core cor, Zval =  5.0
     Generated using "atomic" code by A. Dal Corso  v.5.1.2
     Shape of augmentation charge: PSQ
     Using radial grid of 1085 points,  4 beta functions with: 
                l(1) =   0
                l(2) =   0
                l(3) =   1
                l(4) =   1
     Q(r) pseudized with 0 coefficients 


     PseudoPot. # 3 for Cr read from file:
     /home/sf05/q-e-qe-6.7MaX-Release/pseudo/Cr.pbe-spn-kjpaw_psl.1.0.0.UPF
     MD5 check sum: 198f1a2427a48552563eee314eba32ba
     Pseudo is Projector augmented-wave + core cor, Zval = 14.0
     Generated using &quot;atomic&quot; code by A. Dal Corso  v.6.3
     Shape of augmentation charge: PSQ
     Using radial grid of 1183 points,  6 beta functions with: 
                l(1) =   0
                l(2) =   0
                l(3) =   1
                l(4) =   1
                l(5) =   2
                l(6) =   2
     Q(r) pseudized with 0 coefficients 


     PseudoPot. # 4 for Cr read from file:
     /home/sf05/q-e-qe-6.7MaX-Release/pseudo/Cr.pbe-spn-kjpaw_psl.1.0.0.UPF
     MD5 check sum: 198f1a2427a48552563eee314eba32ba
     Pseudo is Projector augmented-wave + core cor, Zval = 14.0
     Generated using &quot;atomic&quot; code by A. Dal Corso  v.6.3
     Shape of augmentation charge: PSQ
     Using radial grid of 1183 points,  6 beta functions with: 
                l(1) =   0
                l(2) =   0
                l(3) =   1
                l(4) =   1
                l(5) =   2
                l(6) =   2
     Q(r) pseudized with 0 coefficients 


     atomic species   valence    mass     pseudopotential
        B              3.00    10.81100     B ( 1.00)
        N              5.00    14.00674     N ( 1.00)
        Cr1           14.00    51.99610     Cr( 1.00)
        Cr2           14.00    51.99610     Cr( 1.00)

     Starting magnetic structure 
     atomic species   magnetization
        B            0.000
        N            0.000
        Cr1          1.000
        Cr2          1.000

     No symmetry found



   Cartesian axes

     site n.     atom                  positions (alat units)
         1           B   tau(   1) = (  -0.1250000   0.2165064   0.8985623  )
         2           B   tau(   2) = (   0.3750000   0.6495191   0.8985623  )
         3           B   tau(   3) = (   0.2500000   0.0000000   0.8985623  )
         4           B   tau(   4) = (   0.7500000   0.0000000   0.8985623  )
         5           B   tau(   5) = (   0.1250000   0.2165064   0.8985623  )
         6           B   tau(   6) = (  -0.3750000   0.6495191   0.8985623  )
         7           N   tau(   7) = (   0.7500005   0.2886748   0.8985623  )
         8           N   tau(   8) = (   0.3750005   0.5051812   0.8985623  )
         9           N   tau(   9) = (   0.3750005   0.0721685   0.8985623  )
        10           N   tau(  10) = (   0.6250005   0.0721685   0.8985623  )
        11           N   tau(  11) = (   0.2500005   0.2886748   0.8985623  )
        12           N   tau(  12) = (   0.6250005   0.5051812   0.8985623  )
        13           N   tau(  13) = (   0.0000005   0.2886748   0.8985623  )
        14           N   tau(  14) = (   0.2500005   0.7216875   0.8985623  )
        15           N   tau(  15) = (  -0.2499995   0.7216875   0.8985623  )
        16           B   tau(  16) = (   0.0000000   0.4330127   0.8985623  )
        17           B   tau(  17) = (   0.1250000   0.6495191   0.8985623  )
        18           B   tau(  18) = (  -0.1250000   0.6495191   0.8985623  )
        19           B   tau(  19) = (   0.3750000   0.2165064   0.8985623  )
        20           B   tau(  20) = (   0.6250000   0.2165064   0.8985623  )
        21           B   tau(  21) = (   0.5000000   0.4330127   0.8985623  )
        22           N   tau(  22) = (   0.5000005   0.2886748   0.8985623  )
        23           B   tau(  23) = (  -0.2500000   0.4330127   0.8985623  )
        24           B   tau(  24) = (   0.2500000   0.4330127   0.8985623  )
        25           B   tau(  25) = (   0.5000000   0.0000000   0.8985623  )
        26           N   tau(  26) = (  -0.1249995   0.5051812   0.8985623  )
        27           N   tau(  27) = (   0.1250005   0.5051812   0.8985623  )
        28           N   tau(  28) = (   0.0000005   0.7216875   0.8985623  )
        29           N   tau(  29) = (   0.5000005   0.7216875   0.8985623  )
        30           N   tau(  30) = (   0.1250005   0.0721685   0.8985623  )
        31           N   tau(  31) = (   0.8750005   0.0721685   0.8985623  )
        32           B   tau(  32) = (   0.0000000   0.0000000   0.8985623  )
        33           Cr1 tau(  33) = (   0.3600000   0.2598076   1.2040735  )
        34           Cr2 tau(  34) = (   0.1400000   0.2598076   1.2040735  )

     number of k points=    15  Gaussian smearing, width (Ry)=  0.0000
                       cart. coord. in units 2pi/alat
        k(    1) = (   0.1666667   0.2886751   0.0000000), wk =   0.0740741
        k(    2) = (   0.1666667  -0.4811252   0.0000000), wk =   0.0740741
        k(    3) = (   0.1666667  -0.0962250   0.0000000), wk =   0.0740741
        k(    4) = (  -0.5000000  -0.8660254   0.0000000), wk =   0.0370370
        k(    5) = (  -0.1666667   0.2886751   0.0000000), wk =   0.0740741
        k(    6) = (   0.3333333   0.0000000   0.0000000), wk =   0.0740741
        k(    7) = (  -0.1666667  -0.4811252   0.0000000), wk =   0.0740741
        k(    8) = (   0.5000000  -0.0962250   0.0000000), wk =   0.0740741
        k(    9) = (  -0.3333333  -0.3849002   0.0000000), wk =   0.0740741
        k(   10) = (   0.5000000   0.0962250   0.0000000), wk =   0.0740741
        k(   11) = (  -0.3333333   0.3849002   0.0000000), wk =   0.0740741
        k(   12) = (  -0.1666667  -0.0962250   0.0000000), wk =   0.0740741
        k(   13) = (  -0.0000000  -0.1924501   0.0000000), wk =   0.0740741
        k(   14) = (   0.5000000  -0.8660254   0.0000000), wk =   0.0370370
        k(   15) = (  -1.0000000   0.0000000   0.0000000), wk =   0.0370370

     Dense  grid:  1741401 G-vectors     FFT dimensions: ( 135, 135, 240)

     Smooth grid:   474235 G-vectors     FFT dimensions: (  90,  90, 160)

     Estimated max dynamical RAM per process >     218.62 MB

     Estimated total dynamical RAM >      10.25 GB
     Generating pointlists ...
     new r_m :   0.0595 (alat units)  1.1269 (a.u.) for type    1
     new r_m :   0.0595 (alat units)  1.1269 (a.u.) for type    2
     new r_m :   0.0907 (alat units)  1.7177 (a.u.) for type    3
     new r_m :   0.0907 (alat units)  1.7177 (a.u.) for type    4

     Initial potential from superposition of free atoms

     starting charge  155.99382, renormalised to  156.00000

     negative rho (up, down):  6.845E-03 4.655E-04
     Starting wfcs are  148 randomized atomic wfcs
     Checking if some PAW data can be deallocated... 

     total cpu time spent up to now is       20.2 secs

     Self-consistent Calculation

     iteration #  1     ecut=    48.00 Ry     beta= 0.50
     Davidson diagonalization with overlap
     ethr =  1.00E-02,  avg # of iterations =  3.1

     negative rho (up, down):  5.126E-03 2.896E-03

     total cpu time spent up to now is       60.3 secs

     total energy              =   -1130.60074982 Ry
     estimated scf accuracy    <      11.42392181 Ry

     total magnetization       =    12.00 Bohr mag/cell
     absolute magnetization    =    12.08 Bohr mag/cell

     iteration #  2     ecut=    48.00 Ry     beta= 0.50
     Davidson diagonalization with overlap
     ethr =  7.32E-03,  avg # of iterations =  2.7

     negative rho (up, down):  9.382E-03 6.877E-03

     total cpu time spent up to now is       97.6 secs

     total energy              =   -1133.00760673 Ry
     estimated scf accuracy    <       3.31689680 Ry

     total magnetization       =    10.00 Bohr mag/cell
     absolute magnetization    =    10.22 Bohr mag/cell

     iteration #  3     ecut=    48.00 Ry     beta= 0.50
     Davidson diagonalization with overlap
     ethr =  2.13E-03,  avg # of iterations =  8.1

     negative rho (up, down):  3.983E-03 3.282E-03

     total cpu time spent up to now is      137.0 secs

     total energy              =   -1133.49482353 Ry
     estimated scf accuracy    <       0.81779870 Ry

     total magnetization       =    10.00 Bohr mag/cell
     absolute magnetization    =    10.11 Bohr mag/cell

     iteration #  4     ecut=    48.00 Ry     beta= 0.50
     Davidson diagonalization with overlap
     ethr =  5.24E-04,  avg # of iterations =  7.1

     negative rho (up, down):  9.345E-03 9.075E-03

     total cpu time spent up to now is      173.8 secs

     total energy              =   -1133.64042498 Ry
     estimated scf accuracy    <       0.82399613 Ry

     total magnetization       =    10.00 Bohr mag/cell
     absolute magnetization    =    10.01 Bohr mag/cell

     iteration #  5     ecut=    48.00 Ry     beta= 0.50
     Davidson diagonalization with overlap
     ethr =  5.24E-04,  avg # of iterations =  5.9

     negative rho (up, down):  4.715E-03 5.041E-03

     total cpu time spent up to now is      209.1 secs

     total energy              =   -1133.73875407 Ry
     estimated scf accuracy    <       0.05956907 Ry

     total magnetization       =    10.00 Bohr mag/cell
     absolute magnetization    =    10.02 Bohr mag/cell

     iteration #  6     ecut=    48.00 Ry     beta= 0.50
     Davidson diagonalization with overlap
     ethr =  3.82E-05,  avg # of iterations = 10.4

     negative rho (up, down):  3.842E-03 4.221E-03

     total cpu time spent up to now is      252.1 secs

     total energy              =   -1133.74267506 Ry
     estimated scf accuracy    <       0.01440351 Ry

     total magnetization       =    10.00 Bohr mag/cell
     absolute magnetization    =    10.02 Bohr mag/cell

     iteration #  7     ecut=    48.00 Ry     beta= 0.50
     Davidson diagonalization with overlap
     ethr =  9.23E-06,  avg # of iterations =  7.4

     negative rho (up, down):  3.721E-03 4.113E-03

     total cpu time spent up to now is      292.6 secs

     total energy              =   -1133.74624176 Ry
     estimated scf accuracy    <       0.00635451 Ry

     total magnetization       =    10.00 Bohr mag/cell
     absolute magnetization    =    10.01 Bohr mag/cell

     iteration #  8     ecut=    48.00 Ry     beta= 0.50
     Davidson diagonalization with overlap
     ethr =  4.07E-06,  avg # of iterations =  6.8

     negative rho (up, down):  3.387E-03 3.955E-03

     total cpu time spent up to now is      327.5 secs

     total energy              =   -1133.74702850 Ry
     estimated scf accuracy    <       0.00070408 Ry

     total magnetization       =    10.00 Bohr mag/cell
     absolute magnetization    =    10.02 Bohr mag/cell

     iteration #  9     ecut=    48.00 Ry     beta= 0.50
     Davidson diagonalization with overlap
     ethr =  4.51E-07,  avg # of iterations =  6.5

     negative rho (up, down):  3.292E-03 3.940E-03

     total cpu time spent up to now is      362.0 secs

     total energy              =   -1133.74720025 Ry
     estimated scf accuracy    <       0.00008953 Ry

     total magnetization       =    10.00 Bohr mag/cell
     absolute magnetization    =    10.02 Bohr mag/cell

     iteration # 10     ecut=    48.00 Ry     beta= 0.50
     Davidson diagonalization with overlap
     ethr =  5.74E-08,  avg # of iterations =  4.4

     negative rho (up, down):  3.278E-03 3.961E-03

     total cpu time spent up to now is      401.1 secs

     total energy              =   -1133.74727670 Ry
     estimated scf accuracy    <       0.00002148 Ry

     total magnetization       =    10.00 Bohr mag/cell
     absolute magnetization    =    10.02 Bohr mag/cell

     iteration # 11     ecut=    48.00 Ry     beta= 0.50
     Davidson diagonalization with overlap
     ethr =  1.38E-08,  avg # of iterations =  4.0

     negative rho (up, down):  3.266E-03 3.976E-03

     total cpu time spent up to now is      434.2 secs

     total energy              =   -1133.74730101 Ry
     estimated scf accuracy    <       0.00001524 Ry

     total magnetization       =    10.00 Bohr mag/cell
     absolute magnetization    =    10.02 Bohr mag/cell

     iteration # 12     ecut=    48.00 Ry     beta= 0.50
     Davidson diagonalization with overlap
     ethr =  9.77E-09,  avg # of iterations =  3.9

     negative rho (up, down):  3.256E-03 3.971E-03

     total cpu time spent up to now is      466.3 secs

     total energy              =   -1133.74731383 Ry
     estimated scf accuracy    <       0.00000207 Ry

     total magnetization       =    10.00 Bohr mag/cell
     absolute magnetization    =    10.02 Bohr mag/cell

     iteration # 13     ecut=    48.00 Ry     beta= 0.50
     Davidson diagonalization with overlap
     ethr =  1.33E-09,  avg # of iterations =  4.0

     negative rho (up, down):  3.251E-03 3.967E-03

     total cpu time spent up to now is      499.4 secs

     total energy              =   -1133.74731664 Ry
     estimated scf accuracy    <       0.00000044 Ry

     total magnetization       =    10.00 Bohr mag/cell
     absolute magnetization    =    10.02 Bohr mag/cell

     iteration # 14     ecut=    48.00 Ry     beta= 0.50
     Davidson diagonalization with overlap
     ethr =  2.81E-10,  avg # of iterations =  4.9

     negative rho (up, down):  3.249E-03 3.965E-03

     total cpu time spent up to now is      538.0 secs

     total energy              =   -1133.74731751 Ry
     estimated scf accuracy    <       0.00000013 Ry

     total magnetization       =    10.00 Bohr mag/cell
     absolute magnetization    =    10.02 Bohr mag/cell

     iteration # 15     ecut=    48.00 Ry     beta= 0.50
     Davidson diagonalization with overlap
     ethr =  8.06E-11,  avg # of iterations =  4.0

     negative rho (up, down):  3.249E-03 3.965E-03
 
     Magnetic moment per site:
     atom:    1    charge:    0.8808    magn:    0.0007    constr:    0.0000
     atom:    2    charge:    0.8803    magn:    0.0002    constr:    0.0000
     atom:    3    charge:    0.8799    magn:    0.0001    constr:    0.0000
     atom:    4    charge:    0.8804    magn:    0.0001    constr:    0.0000
     atom:    5    charge:    0.8809    magn:    0.0008    constr:    0.0000
     atom:    6    charge:    0.8803    magn:    0.0001    constr:    0.0000
     atom:    7    charge:    2.8610    magn:    0.0001    constr:    0.0000
     atom:    8    charge:    2.8608    magn:    0.0019    constr:    0.0000
     atom:    9    charge:    2.8608    magn:    0.0059    constr:    0.0000
     atom:   10    charge:    2.8609    magn:    0.0006    constr:    0.0000
     atom:   11    charge:    2.8604    magn:    0.0122    constr:    0.0000
     atom:   12    charge:    2.8610    magn:    0.0002    constr:    0.0000
     atom:   13    charge:    2.8597    magn:    0.0057    constr:    0.0000
     atom:   14    charge:    2.8599    magn:    0.0003    constr:    0.0000
     atom:   15    charge:    2.8599    magn:    0.0000    constr:    0.0000
     atom:   16    charge:    0.8801    magn:    0.0004    constr:    0.0000
     atom:   17    charge:    0.8800    magn:    0.0002    constr:    0.0000
     atom:   18    charge:    0.8800    magn:    0.0001    constr:    0.0000
     atom:   19    charge:    0.8804    magn:    0.0008    constr:    0.0000
     atom:   20    charge:    0.8802    magn:    0.0007    constr:    0.0000
     atom:   21    charge:    0.8799    magn:    0.0004    constr:    0.0000
     atom:   22    charge:    2.8610    magn:    0.0057    constr:    0.0000
     atom:   23    charge:    0.8801    magn:    0.0002    constr:    0.0000
     atom:   24    charge:    0.8795    magn:    0.0004    constr:    0.0000
     atom:   25    charge:    0.8800    magn:    0.0003    constr:    0.0000
     atom:   26    charge:    2.8599    magn:    0.0002    constr:    0.0000
     atom:   27    charge:    2.8596    magn:    0.0019    constr:    0.0000
     atom:   28    charge:    2.8598    magn:    0.0002    constr:    0.0000
     atom:   29    charge:    2.8596    magn:    0.0002    constr:    0.0000
     atom:   30    charge:    2.8595    magn:    0.0059    constr:    0.0000
     atom:   31    charge:    2.8596    magn:    0.0006    constr:    0.0000
     atom:   32    charge:    0.8803    magn:    0.0003    constr:    0.0000
     atom:   33    charge:   11.6534    magn:    3.6413    constr:    0.0000
     atom:   34    charge:   11.6534    magn:    3.6413    constr:    0.0000

     total cpu time spent up to now is      570.2 secs

     End of self-consistent calculation

 ------ SPIN UP ------------


          k = 0.1667 0.2887 0.0000 ( 59267 PWs)   bands (ev):

   -73.2435 -73.0919 -45.2080 -44.5774 -44.5561 -44.4734 -44.4521 -44.3888
   -21.2322 -20.6505 -20.6363 -20.0881 -20.0833 -19.5770 -19.5639 -19.0847
   -18.6861 -18.6730 -18.4413 -18.4372 -18.1796 -18.0718 -18.0621 -17.8348
   -12.4699 -12.1908 -12.1876 -11.8061 -11.8027 -11.6432 -11.1810 -11.1706
   -10.3765 -10.3536 -10.1050 -10.0977  -9.5761  -9.5714  -8.8335  -8.8091
    -8.8064  -8.7542  -8.7435  -8.5815  -8.1820  -8.0587  -7.9874  -7.8138
    -7.8119  -7.4253  -7.4204  -7.2649  -7.2538  -7.1947  -7.1896  -6.9446
    -6.9409  -6.5703  -6.5106  -6.1391  -6.1371  -5.8617  -5.4033  -5.2911
    -5.2616  -5.1851  -4.8961  -4.8948  -4.5008  -4.3437  -4.3295  -3.9703
    -3.6323  -3.1681  -3.0847  -2.5957  -2.0980  -2.0250  -1.5106  -1.4941
    -1.1989  -1.1127  -1.0764  -0.2875   0.4893   0.9012   1.1538   1.2482
     1.2979   1.4970   1.5266   1.6011   1.6249   1.7982

          k = 0.1667-0.4811 0.0000 ( 59291 PWs)   bands (ev):

   -73.2435 -73.0919 -45.2080 -44.5774 -44.5561 -44.4734 -44.4521 -44.3888
   -21.1018 -20.8978 -20.7076 -20.1459 -19.7898 -19.4515 -19.3029 -19.1596
   -18.9996 -18.7636 -18.6264 -18.5296 -18.1331 -18.0755 -17.9070 -17.7092
   -12.3341 -12.0988 -12.0290 -11.8921 -11.6660 -11.6423 -11.5383 -10.9268
   -10.8754 -10.6093 -10.5083  -9.8453  -9.6787  -9.3213  -9.0957  -8.6635
    -8.6077  -8.5383  -8.3740  -8.3586  -8.1462  -8.1072  -8.0489  -8.0340
    -7.6731  -7.6081  -7.4795  -7.4588  -7.3446  -7.1564  -7.0525  -6.8512
    -6.6069  -6.3779  -6.1718  -6.1426  -5.9576  -5.9138  -5.7684  -5.7351
    -5.4364  -5.3829  -5.2031  -5.0300  -4.4397  -4.3361  -4.0777  -3.7614
    -3.6294  -3.1685  -3.0825  -2.5925  -2.0977  -2.0252  -1.5124  -1.4950
    -1.2003  -1.1124  -1.0763  -0.2915   0.4191   0.9163   1.1152   1.2083
     1.2450   1.3056   1.3984   1.8705   1.8944   2.1517

          k = 0.1667-0.0962 0.0000 ( 59226 PWs)   bands (ev):

   -73.2435 -73.0919 -45.2080 -44.5773 -44.5561 -44.4734 -44.4521 -44.3888
   -21.2987 -20.5208 -20.3323 -20.3228 -19.9762 -19.9631 -19.7911 -18.7171
   -18.7049 -18.3592 -18.3562 -18.3398 -18.2521 -18.2470 -18.0635 -18.0559
   -12.4918 -12.4887 -12.3933 -11.5680 -11.5601 -11.4102 -11.4064 -10.9123
   -10.9080  -9.9145  -9.9114  -9.6613  -9.3601  -9.3577  -9.2150  -9.2133
    -9.0269  -9.0258  -8.9155  -8.3087  -8.3063  -7.8864  -7.8845  -7.8742
    -7.8298  -7.7552  -7.6032  -7.5648  -7.1333  -7.0703  -6.9439  -6.8739
    -6.8693  -6.8375  -6.5168  -6.5123  -6.2423  -5.3532  -5.2971  -5.1282
    -5.0500  -4.8063  -4.7887  -4.7415  -4.6001  -4.5928  -4.3489  -4.3145
    -3.6336  -3.1679  -3.0864  -2.5989  -2.0994  -2.0247  -1.5092  -1.4932
    -1.1973  -1.1131  -1.0765  -0.2829   0.5621   0.8715   1.1401   1.2132
     1.2830   1.3506   1.6042   1.6086   1.7486   2.0041

          k =-0.5000-0.8660 0.0000 ( 59292 PWs)   bands (ev):

   -73.2435 -73.0919 -45.2080 -44.5774 -44.5561 -44.4734 -44.4521 -44.3888
   -21.0412 -21.0257 -20.4570 -20.4471 -19.4105 -19.4063 -19.4030 -19.3905
   -18.9811 -18.9706 -18.3146 -18.3066 -18.3056 -18.2897 -17.7805 -17.7720
   -12.0590 -12.0544 -12.0484 -12.0391 -11.8659 -11.8558 -11.3190 -11.3086
   -10.2218 -10.2162 -10.1211 -10.1180 -10.1122 -10.1118  -8.6033  -8.5370
    -8.5321  -8.5283  -8.5218  -8.5139  -7.8513  -7.8481  -7.8439  -7.8423
    -7.8079  -7.8059  -7.7755  -7.7346  -7.4781  -7.4680  -6.5983  -6.5906
    -6.3502  -6.3320  -6.2918  -6.2755  -6.1771  -6.1704  -5.7042  -5.6814
    -5.5334  -5.5235  -4.7432  -4.7047  -4.6908  -4.6557  -3.8944  -3.8494
    -3.6290  -3.1672  -3.0806  -2.5926  -2.0978  -2.0257  -1.5119  -1.4931
    -1.2077  -1.1156  -1.0766  -0.3887   0.5356   0.9336   1.1195   1.1642
     1.5607   1.5888   1.6182   1.6242   1.7260   1.8631

          k =-0.1667 0.2887 0.0000 ( 59267 PWs)   bands (ev):

   -73.2435 -73.0919 -45.2080 -44.5774 -44.5561 -44.4734 -44.4521 -44.3888
   -21.2322 -20.6505 -20.6364 -20.0881 -20.0833 -19.5769 -19.5639 -19.0847
   -18.6860 -18.6731 -18.4413 -18.4372 -18.1796 -18.0717 -18.0622 -17.8349
   -12.4699 -12.1908 -12.1876 -11.8061 -11.8027 -11.6433 -11.1810 -11.1706
   -10.3765 -10.3535 -10.1050 -10.0978  -9.5761  -9.5714  -8.8335  -8.8091
    -8.8064  -8.7542  -8.7436  -8.5815  -8.1820  -8.0587  -7.9874  -7.8138
    -7.8118  -7.4254  -7.4204  -7.2649  -7.2538  -7.1946  -7.1896  -6.9447
    -6.9410  -6.5703  -6.5106  -6.1391  -6.1371  -5.8617  -5.4034  -5.2911
    -5.2616  -5.1850  -4.8961  -4.8948  -4.5008  -4.3437  -4.3295  -3.9702
    -3.6323  -3.1681  -3.0847  -2.5957  -2.0980  -2.0250  -1.5106  -1.4941
    -1.1988  -1.1127  -1.0764  -0.2875   0.4893   0.9012   1.1539   1.2482
     1.2979   1.4970   1.5266   1.6011   1.6248   1.7983

          k = 0.3333 0.0000 0.0000 ( 59267 PWs)   bands (ev):

   -73.2435 -73.0919 -45.2080 -44.5773 -44.5561 -44.4734 -44.4521 -44.3888
   -21.2318 -20.6700 -20.6167 -20.0953 -20.0746 -19.5973 -19.5452 -19.0867
   -18.6991 -18.6556 -18.4499 -18.4299 -18.1763 -18.0917 -18.0479 -17.8340
   -12.4683 -12.1986 -12.1809 -11.8152 -11.7960 -11.6420 -11.1932 -11.1575
   -10.3774 -10.3519 -10.1168 -10.0873  -9.5805  -9.5656  -8.8339  -8.8124
    -8.7998  -8.7717  -8.7274  -8.5820  -8.1838  -8.0931  -7.9523  -7.8143
    -7.8096  -7.4302  -7.4150  -7.2906  -7.2229  -7.2020  -7.1819  -6.9520
    -6.9351  -6.6063  -6.4804  -6.1414  -6.1341  -5.8698  -5.4037  -5.3072
    -5.2322  -5.1852  -4.9199  -4.8734  -4.4928  -4.3752  -4.3101  -3.9712
    -3.6310  -3.1672  -3.0841  -2.5957  -2.0992  -2.0251  -1.5100  -1.4929
    -1.2028  -1.1149  -1.0763  -0.3550   0.5605   0.9065   1.2308   1.2718
     1.4011   1.4975   1.5389   1.5815   1.6076   1.8635

          k =-0.1667-0.4811 0.0000 ( 59291 PWs)   bands (ev):

   -73.2435 -73.0919 -45.2080 -44.5774 -44.5561 -44.4734 -44.4521 -44.3888
   -21.1018 -20.8978 -20.7076 -20.1459 -19.7898 -19.4515 -19.3029 -19.1596
   -18.9996 -18.7636 -18.6264 -18.5296 -18.1331 -18.0755 -17.9070 -17.7092
   -12.3341 -12.0988 -12.0290 -11.8921 -11.6660 -11.6423 -11.5383 -10.9268
   -10.8755 -10.6093 -10.5083  -9.8452  -9.6787  -9.3213  -9.0958  -8.6635
    -8.6077  -8.5383  -8.3739  -8.3586  -8.1461  -8.1072  -8.0490  -8.0340
    -7.6731  -7.6082  -7.4794  -7.4588  -7.3446  -7.1564  -7.0524  -6.8511
    -6.6069  -6.3780  -6.1718  -6.1426  -5.9576  -5.9137  -5.7684  -5.7351
    -5.4364  -5.3829  -5.2031  -5.0300  -4.4397  -4.3361  -4.0777  -3.7614
    -3.6294  -3.1685  -3.0825  -2.5925  -2.0977  -2.0252  -1.5124  -1.4950
    -1.2003  -1.1124  -1.0763  -0.2915   0.4191   0.9163   1.1152   1.2083
     1.2450   1.3056   1.3984   1.8705   1.8944   2.1517

          k = 0.5000-0.0962 0.0000 ( 59291 PWs)   bands (ev):

   -73.2435 -73.0919 -45.2080 -44.5773 -44.5561 -44.4734 -44.4521 -44.3888
   -21.0993 -20.9045 -20.7034 -20.1444 -19.7895 -19.4537 -19.3075 -19.1550
   -19.0010 -18.7650 -18.6167 -18.5348 -18.1234 -18.0895 -17.9044 -17.7087
   -12.3317 -12.0998 -12.0278 -11.8959 -11.6772 -11.6301 -11.5395 -10.9279
   -10.8729 -10.6071 -10.5110  -9.8437  -9.6789  -9.3219  -9.0953  -8.6552
    -8.6080  -8.5360  -8.3868  -8.3751  -8.1447  -8.0910  -8.0598  -8.0239
    -7.6695  -7.6085  -7.4789  -7.4596  -7.3397  -7.1571  -7.0535  -6.8485
    -6.6074  -6.3870  -6.1848  -6.1423  -5.9449  -5.9137  -5.7678  -5.7391
    -5.4372  -5.3871  -5.1774  -5.0418  -4.4193  -4.3609  -4.0771  -3.7624
    -3.6286  -3.1673  -3.0804  -2.5926  -2.0984  -2.0256  -1.5119  -1.4932
    -1.2077  -1.1156  -1.0766  -0.3881   0.5252   0.9300   1.1017   1.2237
     1.2831   1.3724   1.7027   1.8619   1.9124   2.0031

          k =-0.3333-0.3849 0.0000 ( 59291 PWs)   bands (ev):

   -73.2435 -73.0919 -45.2080 -44.5774 -44.5561 -44.4734 -44.4521 -44.3888
   -21.1002 -20.9021 -20.7051 -20.1441 -19.7915 -19.4519 -19.3030 -19.1584
   -19.0033 -18.7631 -18.6180 -18.5345 -18.1251 -18.0871 -17.9045 -17.7089
   -12.3334 -12.0965 -12.0303 -11.8939 -11.6674 -11.6413 -11.5392 -10.9278
   -10.8732 -10.6067 -10.5109  -9.8436  -9.6789  -9.3221  -9.0967  -8.6575
    -8.6071  -8.5377  -8.3754  -8.3744  -8.1457  -8.0978  -8.0492  -8.0360
    -7.6697  -7.6075  -7.4840  -7.4545  -7.3376  -7.1572  -7.0540  -6.8572
    -6.6059  -6.3806  -6.1692  -6.1441  -5.9554  -5.9123  -5.7678  -5.7481
    -5.4372  -5.3805  -5.1806  -5.0419  -4.4227  -4.3567  -4.0777  -3.7613
    -3.6289  -3.1677  -3.0809  -2.5926  -2.0978  -2.0255  -1.5122  -1.4938
    -1.2055  -1.1145  -1.0767  -0.3589   0.4924   0.9264   1.1108   1.2050
     1.2516   1.3882   1.5794   1.8825   1.9355   1.9969

          k = 0.5000 0.0962 0.0000 ( 59291 PWs)   bands (ev):

   -73.2435 -73.0919 -45.2080 -44.5773 -44.5561 -44.4734 -44.4521 -44.3888
   -21.0993 -20.9045 -20.7034 -20.1444 -19.7895 -19.4537 -19.3075 -19.1550
   -19.0010 -18.7650 -18.6167 -18.5348 -18.1234 -18.0895 -17.9044 -17.7087
   -12.3317 -12.0998 -12.0278 -11.8960 -11.6772 -11.6301 -11.5395 -10.9278
   -10.8729 -10.6071 -10.5110  -9.8437  -9.6789  -9.3219  -9.0953  -8.6552
    -8.6080  -8.5361  -8.3869  -8.3751  -8.1447  -8.0910  -8.0598  -8.0238
    -7.6696  -7.6085  -7.4790  -7.4596  -7.3397  -7.1572  -7.0534  -6.8485
    -6.6073  -6.3870  -6.1848  -6.1422  -5.9449  -5.9137  -5.7679  -5.7391
    -5.4372  -5.3871  -5.1774  -5.0418  -4.4193  -4.3609  -4.0771  -3.7624
    -3.6286  -3.1673  -3.0804  -2.5926  -2.0984  -2.0256  -1.5119  -1.4932
    -1.2077  -1.1156  -1.0766  -0.3881   0.5252   0.9300   1.1017   1.2237
     1.2831   1.3724   1.7028   1.8616   1.9123   2.0031

          k =-0.3333 0.3849 0.0000 ( 59291 PWs)   bands (ev):

   -73.2435 -73.0919 -45.2080 -44.5774 -44.5561 -44.4734 -44.4521 -44.3888
   -21.1002 -20.9021 -20.7051 -20.1441 -19.7915 -19.4519 -19.3030 -19.1585
   -19.0033 -18.7631 -18.6180 -18.5345 -18.1251 -18.0871 -17.9045 -17.7089
   -12.3334 -12.0965 -12.0303 -11.8939 -11.6674 -11.6414 -11.5391 -10.9278
   -10.8732 -10.6067 -10.5109  -9.8436  -9.6789  -9.3221  -9.0967  -8.6575
    -8.6071  -8.5376  -8.3754  -8.3744  -8.1457  -8.0978  -8.0491  -8.0360
    -7.6697  -7.6075  -7.4840  -7.4545  -7.3376  -7.1571  -7.0541  -6.8572
    -6.6060  -6.3805  -6.1692  -6.1441  -5.9554  -5.9124  -5.7677  -5.7481
    -5.4371  -5.3805  -5.1806  -5.0419  -4.4227  -4.3567  -4.0776  -3.7613
    -3.6289  -3.1677  -3.0809  -2.5926  -2.0978  -2.0255  -1.5122  -1.4938
    -1.2055  -1.1145  -1.0767  -0.3588   0.4924   0.9264   1.1108   1.2050
     1.2516   1.3882   1.5794   1.8825   1.9355   1.9968

          k =-0.1667-0.0962 0.0000 ( 59226 PWs)   bands (ev):

   -73.2435 -73.0919 -45.2080 -44.5773 -44.5561 -44.4734 -44.4521 -44.3888
   -21.2987 -20.5208 -20.3323 -20.3229 -19.9762 -19.9631 -19.7911 -18.7171
   -18.7049 -18.3592 -18.3562 -18.3397 -18.2521 -18.2471 -18.0635 -18.0559
   -12.4918 -12.4887 -12.3933 -11.5680 -11.5600 -11.4102 -11.4064 -10.9123
   -10.9080  -9.9145  -9.9114  -9.6612  -9.3601  -9.3577  -9.2150  -9.2134
    -9.0269  -9.0259  -8.9155  -8.3088  -8.3064  -7.8864  -7.8845  -7.8742
    -7.8298  -7.7552  -7.6032  -7.5648  -7.1333  -7.0703  -6.9440  -6.8739
    -6.8692  -6.8375  -6.5168  -6.5122  -6.2424  -5.3532  -5.2971  -5.1281
    -5.0501  -4.8062  -4.7886  -4.7415  -4.6000  -4.5928  -4.3489  -4.3145
    -3.6336  -3.1679  -3.0864  -2.5989  -2.0994  -2.0247  -1.5092  -1.4932
    -1.1973  -1.1131  -1.0765  -0.2829   0.5621   0.8715   1.1401   1.2132
     1.2830   1.3507   1.6042   1.6086   1.7486   2.0040

          k =-0.0000-0.1925 0.0000 ( 59226 PWs)   bands (ev):

   -73.2435 -73.0919 -45.2079 -44.5773 -44.5561 -44.4734 -44.4521 -44.3887
   -21.2988 -20.5166 -20.3344 -20.3283 -19.9684 -19.9644 -19.7941 -18.7114
   -18.7073 -18.3840 -18.3464 -18.3406 -18.2418 -18.2402 -18.0646 -18.0592
   -12.4993 -12.4818 -12.3928 -11.5658 -11.5622 -11.4168 -11.3987 -10.9113
   -10.9101  -9.9143  -9.9124  -9.6608  -9.3624  -9.3533  -9.2156  -9.2145
    -9.0265  -9.0264  -8.9159  -8.3083  -8.3068  -7.8867  -7.8816  -7.8606
    -7.8298  -7.7567  -7.6022  -7.5937  -7.0940  -7.0880  -6.9429  -6.8732
    -6.8711  -6.8458  -6.5153  -6.5130  -6.2428  -5.3250  -5.3169  -5.1282
    -5.0499  -4.8493  -4.7775  -4.7416  -4.5862  -4.5763  -4.3346  -4.3345
    -3.6344  -3.1683  -3.0865  -2.5988  -2.0988  -2.0247  -1.5095  -1.4938
    -1.1955  -1.1119  -1.0765  -0.2429   0.5215   0.8692   1.0755   1.1940
     1.2287   1.4088   1.5968   1.6065   1.7347   1.9941

          k = 0.5000-0.8660 0.0000 ( 59292 PWs)   bands (ev):

   -73.2435 -73.0919 -45.2080 -44.5774 -44.5561 -44.4734 -44.4521 -44.3888
   -21.0412 -21.0257 -20.4570 -20.4471 -19.4105 -19.4063 -19.4030 -19.3905
   -18.9810 -18.9706 -18.3145 -18.3066 -18.3056 -18.2898 -17.7804 -17.7720
   -12.0590 -12.0544 -12.0484 -12.0392 -11.8658 -11.8558 -11.3189 -11.3086
   -10.2218 -10.2162 -10.1211 -10.1180 -10.1122 -10.1119  -8.6033  -8.5369
    -8.5320  -8.5283  -8.5218  -8.5139  -7.8513  -7.8480  -7.8439  -7.8422
    -7.8080  -7.8059  -7.7755  -7.7346  -7.4781  -7.4681  -6.5982  -6.5905
    -6.3502  -6.3320  -6.2918  -6.2755  -6.1770  -6.1704  -5.7042  -5.6815
    -5.5335  -5.5236  -4.7431  -4.7047  -4.6908  -4.6557  -3.8945  -3.8494
    -3.6290  -3.1672  -3.0806  -2.5926  -2.0978  -2.0257  -1.5119  -1.4931
    -1.2077  -1.1156  -1.0766  -0.3887   0.5356   0.9336   1.1195   1.1642
     1.5607   1.5888   1.6181   1.6242   1.7262   1.8631

          k =-1.0000 0.0000 0.0000 ( 59292 PWs)   bands (ev):

   -73.2435 -73.0919 -45.2080 -44.5774 -44.5561 -44.4734 -44.4521 -44.3888
   -21.0591 -21.0053 -20.4568 -20.4513 -19.4154 -19.4080 -19.3917 -19.3904
   -18.9975 -18.9553 -18.3621 -18.2986 -18.2905 -18.2659 -17.7795 -17.7746
   -12.0972 -12.0518 -12.0316 -12.0188 -11.8626 -11.8583 -11.3337 -11.2943
   -10.2284 -10.2239 -10.1147 -10.1141 -10.1125 -10.1102  -8.6289  -8.5617
    -8.5341  -8.5183  -8.5018  -8.4782  -7.8572  -7.8535  -7.8484  -7.8436
    -7.7996  -7.7991  -7.7645  -7.7615  -7.4968  -7.4511  -6.5944  -6.5914
    -6.3467  -6.3358  -6.2757  -6.2756  -6.1922  -6.1572  -5.7287  -5.6592
    -5.5499  -5.5075  -4.8155  -4.7087  -4.6519  -4.6270  -3.8740  -3.8660
    -3.6304  -3.1687  -3.0837  -2.5925  -2.0977  -2.0250  -1.5122  -1.4955
    -1.1972  -1.1113  -1.0759  -0.2531   0.3878   0.9112   1.1266   1.1722
     1.1907   1.5029   1.5859   1.6389   1.6488   1.9049

 ------ SPIN DOWN ----------


          k = 0.1667 0.2887 0.0000 ( 59267 PWs)   bands (ev):

   -69.1204 -68.9585 -41.2763 -40.4352 -40.4186 -40.4032 -40.3224 -40.3044
   -21.2270 -20.6437 -20.6333 -20.0831 -20.0783 -19.5701 -19.5610 -19.0796
   -18.6780 -18.6699 -18.4364 -18.4321 -18.1734 -18.0658 -18.0593 -17.8297
   -12.4663 -12.1872 -12.1842 -11.8030 -11.7999 -11.6406 -11.1764 -11.1682
   -10.3730 -10.3498 -10.1003 -10.0953  -9.5720  -9.5687  -8.8117  -8.8047
    -8.7977  -8.7500  -8.7417  -8.5784  -8.1791  -8.0246  -7.9783  -7.8108
    -7.8089  -7.4203  -7.4173  -7.2421  -7.2349  -7.1909  -7.1874  -6.9418
    -6.9379  -6.5408  -6.5027  -6.1356  -6.1343  -5.8404  -5.3997  -5.2604
    -5.2446  -5.1818  -4.8788  -4.8756  -4.4742  -4.3251  -4.3160  -3.9501
    -1.5766   0.1174   0.1788   0.2761   0.5311   1.0647   1.0884   1.2588
     1.3050   1.4210   1.4866   1.5307   1.5728   1.6105   1.8007   1.8815
     2.0533   2.0967   2.2364   2.2607   2.3129   2.3329

          k = 0.1667-0.4811 0.0000 ( 59291 PWs)   bands (ev):

   -69.1204 -68.9585 -41.2763 -40.4352 -40.4187 -40.4032 -40.3223 -40.3044
   -21.0961 -20.8935 -20.7028 -20.1408 -19.7848 -19.4466 -19.2977 -19.1545
   -18.9945 -18.7589 -18.6196 -18.5257 -18.1258 -18.0726 -17.9019 -17.7039
   -12.3303 -12.0951 -12.0262 -11.8889 -11.6632 -11.6394 -11.5349 -10.9235
   -10.8715 -10.6051 -10.5053  -9.8413  -9.6753  -9.3176  -9.0926  -8.6307
    -8.6044  -8.5343  -8.3711  -8.3422  -8.1432  -8.0878  -8.0452  -8.0316
    -7.6696  -7.6051  -7.4760  -7.4563  -7.3225  -7.1524  -7.0496  -6.8301
    -6.6030  -6.3580  -6.1485  -6.1396  -5.9399  -5.9101  -5.7651  -5.7150
    -5.4332  -5.3657  -5.1717  -5.0178  -4.4074  -4.3273  -4.0590  -3.7382
    -1.5696   0.1172   0.1856   0.2811   0.5203   0.9933   1.0413   1.1714
     1.1952   1.3592   1.4422   1.5023   1.6532   1.8149   1.8620   2.1048
     2.1442   2.1876   2.2191   2.2570   2.3091   2.3214

          k = 0.1667-0.0962 0.0000 ( 59226 PWs)   bands (ev):

   -69.1204 -68.9585 -41.2763 -40.4351 -40.4186 -40.4032 -40.3224 -40.3044
   -21.2936 -20.5150 -20.3274 -20.3187 -19.9700 -19.9588 -19.7870 -18.7105
   -18.7001 -18.3530 -18.3504 -18.3351 -18.2469 -18.2425 -18.0589 -18.0517
   -12.4882 -12.4854 -12.3899 -11.5643 -11.5575 -11.4070 -11.4031 -10.9084
   -10.9051  -9.9108  -9.9083  -9.6573  -9.3566  -9.3541  -9.2112  -9.2096
    -9.0237  -9.0226  -8.8905  -8.3048  -8.3024  -7.8827  -7.8813  -7.8445
    -7.8251  -7.7523  -7.5810  -7.5532  -7.1000  -7.0589  -6.9407  -6.8706
    -6.8667  -6.8251  -6.5134  -6.5095  -6.2393  -5.3179  -5.2838  -5.1247
    -5.0468  -4.7746  -4.7704  -4.7234  -4.5827  -4.5772  -4.3251  -4.3036
    -1.5836   0.1178   0.1706   0.2718   0.5464   0.9825   1.0942   1.2877
     1.3442   1.4161   1.5186   1.5535   1.6488   1.7024   1.7962   1.9399
     1.9913   2.0651   2.1161   2.2659   2.3108   2.3327

          k =-0.5000-0.8660 0.0000 ( 59292 PWs)   bands (ev):

   -69.1204 -68.9585 -41.2763 -40.4352 -40.4186 -40.4033 -40.3224 -40.3044
   -21.0339 -21.0227 -20.4519 -20.4428 -19.4037 -19.4011 -19.3980 -19.3866
   -18.9742 -18.9680 -18.3047 -18.3020 -18.2999 -18.2890 -17.7750 -17.7674
   -12.0534 -12.0507 -12.0456 -12.0378 -11.8622 -11.8536 -11.3144 -11.3061
   -10.2177 -10.2130 -10.1167 -10.1143 -10.1094 -10.1087  -8.5612  -8.5315
    -8.5286  -8.5255  -8.5203  -8.5054  -7.8473  -7.8447  -7.8408  -7.8392
    -7.8037  -7.8009  -7.7530  -7.7229  -7.4740  -7.4664  -6.5940  -6.5879
    -6.3129  -6.3036  -6.2798  -6.2640  -6.1727  -6.1677  -5.6816  -5.6688
    -5.5287  -5.5218  -4.7012  -4.6856  -4.6749  -4.6532  -3.8597  -3.8383
    -1.5560   0.1206   0.1787   0.2791   0.3300   1.0013   1.0635   1.2031
     1.4291   1.5005   1.5289   1.5779   1.6214   1.6976   1.8076   1.9306
     1.9543   2.2057   2.2429   2.2559   2.3036   2.3405

          k =-0.1667 0.2887 0.0000 ( 59267 PWs)   bands (ev):

   -69.1204 -68.9585 -41.2763 -40.4352 -40.4186 -40.4032 -40.3224 -40.3044
   -21.2270 -20.6436 -20.6334 -20.0831 -20.0783 -19.5701 -19.5610 -19.0796
   -18.6779 -18.6699 -18.4364 -18.4321 -18.1734 -18.0658 -18.0593 -17.8297
   -12.4662 -12.1872 -12.1842 -11.8029 -11.7999 -11.6406 -11.1763 -11.1682
   -10.3730 -10.3498 -10.1003 -10.0954  -9.5720  -9.5687  -8.8116  -8.8047
    -8.7977  -8.7500  -8.7418  -8.5783  -8.1791  -8.0246  -7.9783  -7.8107
    -7.8089  -7.4203  -7.4173  -7.2421  -7.2349  -7.1908  -7.1874  -6.9419
    -6.9379  -6.5408  -6.5027  -6.1355  -6.1343  -5.8403  -5.3998  -5.2604
    -5.2446  -5.1817  -4.8788  -4.8756  -4.4742  -4.3251  -4.3160  -3.9501
    -1.5766   0.1174   0.1788   0.2761   0.5311   1.0647   1.0884   1.2588
     1.3050   1.4210   1.4866   1.5307   1.5728   1.6105   1.8006   1.8816
     2.0532   2.0968   2.2363   2.2606   2.3128   2.3329

          k = 0.3333 0.0000 0.0000 ( 59267 PWs)   bands (ev):

   -69.1204 -68.9585 -41.2763 -40.4351 -40.4186 -40.4032 -40.3223 -40.3044
   -21.2267 -20.6623 -20.6145 -20.0894 -20.0708 -19.5896 -19.5429 -19.0812
   -18.6908 -18.6534 -18.4440 -18.4255 -18.1706 -18.0842 -18.0456 -17.8291
   -12.4653 -12.1933 -12.1787 -11.8111 -11.7937 -11.6392 -11.1888 -11.1555
   -10.3733 -10.3488 -10.1109 -10.0855  -9.5764  -9.5633  -8.8135  -8.8054
    -8.7933  -8.7668  -8.7260  -8.5790  -8.1805  -8.0549  -7.9477  -7.8113
    -7.8069  -7.4247  -7.4124  -7.2608  -7.2126  -7.1982  -7.1799  -6.9481
    -6.9327  -6.5722  -6.4754  -6.1379  -6.1314  -5.8451  -5.3997  -5.2762
    -5.2211  -5.1820  -4.8956  -4.8603  -4.4693  -4.3501  -4.2989  -3.9494
    -1.5678   0.1213   0.1718   0.2727   0.4046   0.9672   1.1411   1.3452
     1.4513   1.4764   1.4926   1.5437   1.5952   1.6281   1.6736   1.9517
     2.0352   2.1531   2.2144   2.2703   2.3082   2.4453

          k =-0.1667-0.4811 0.0000 ( 59291 PWs)   bands (ev):

   -69.1204 -68.9585 -41.2763 -40.4352 -40.4187 -40.4032 -40.3223 -40.3044
   -21.0961 -20.8935 -20.7028 -20.1408 -19.7848 -19.4466 -19.2977 -19.1545
   -18.9945 -18.7589 -18.6196 -18.5257 -18.1258 -18.0726 -17.9019 -17.7039
   -12.3303 -12.0951 -12.0262 -11.8889 -11.6632 -11.6394 -11.5350 -10.9235
   -10.8715 -10.6051 -10.5052  -9.8413  -9.6753  -9.3176  -9.0926  -8.6307
    -8.6044  -8.5343  -8.3710  -8.3422  -8.1431  -8.0878  -8.0453  -8.0316
    -7.6696  -7.6051  -7.4759  -7.4563  -7.3225  -7.1524  -7.0496  -6.8301
    -6.6030  -6.3580  -6.1485  -6.1396  -5.9399  -5.9100  -5.7650  -5.7150
    -5.4332  -5.3657  -5.1717  -5.0179  -4.4074  -4.3273  -4.0590  -3.7382
    -1.5696   0.1172   0.1856   0.2811   0.5203   0.9933   1.0413   1.1714
     1.1952   1.3592   1.4422   1.5023   1.6532   1.8150   1.8620   2.1048
     2.1442   2.1876   2.2190   2.2570   2.3091   2.3213

          k = 0.5000-0.0962 0.0000 ( 59291 PWs)   bands (ev):

   -69.1204 -68.9585 -41.2763 -40.4351 -40.4187 -40.4033 -40.3224 -40.3044
   -21.0941 -20.8990 -20.6993 -20.1396 -19.7846 -19.4483 -19.3016 -19.1508
   -18.9955 -18.7600 -18.6116 -18.5300 -18.1172 -18.0846 -17.8999 -17.7036
   -12.3287 -12.0959 -12.0249 -11.8922 -11.6729 -11.6283 -11.5363 -10.9241
   -10.8696 -10.6035 -10.5074  -9.8398  -9.6756  -9.3182  -9.0922  -8.6252
    -8.6044  -8.5327  -8.3751  -8.3585  -8.1418  -8.0770  -8.0556  -8.0222
    -7.6666  -7.6055  -7.4753  -7.4571  -7.3191  -7.1533  -7.0502  -6.8287
    -6.6033  -6.3635  -6.1576  -6.1392  -5.9315  -5.9098  -5.7645  -5.7171
    -5.4341  -5.3681  -5.1559  -5.0257  -4.3930  -4.3454  -4.0574  -3.7379
    -1.5560   0.1211   0.1763   0.2764   0.3374   0.9980   1.0086   1.1772
     1.3384   1.4553   1.4725   1.5275   1.6850   1.8146   1.9778   2.0230
     2.1347   2.1858   2.2220   2.2694   2.3096   2.3654

          k =-0.3333-0.3849 0.0000 ( 59291 PWs)   bands (ev):

   -69.1204 -68.9585 -41.2763 -40.4352 -40.4187 -40.4032 -40.3224 -40.3044
   -21.0948 -20.8970 -20.7006 -20.1393 -19.7863 -19.4468 -19.2978 -19.1536
   -18.9976 -18.7585 -18.6126 -18.5297 -18.1188 -18.0825 -17.9000 -17.7037
   -12.3298 -12.0935 -12.0270 -11.8907 -11.6641 -11.6383 -11.5357 -10.9240
   -10.8696 -10.6031 -10.5076  -9.8399  -9.6757  -9.3181  -9.0931  -8.6266
    -8.6039  -8.5339  -8.3722  -8.3529  -8.1428  -8.0815  -8.0453  -8.0334
    -7.6668  -7.6044  -7.4802  -7.4525  -7.3180  -7.1534  -7.0507  -6.8341
    -6.6019  -6.3592  -6.1479  -6.1403  -5.9384  -5.9088  -5.7647  -5.7229
    -5.4340  -5.3642  -5.1575  -5.0258  -4.3950  -4.3429  -4.0573  -3.7380
    -1.5606   0.1191   0.1808   0.2796   0.3857   0.9903   1.0528   1.1894
     1.2529   1.3655   1.4598   1.5296   1.7133   1.9526   1.9724   2.0042
     2.0800   2.1648   2.2210   2.2385   2.3161   2.3552

          k = 0.5000 0.0962 0.0000 ( 59291 PWs)   bands (ev):

   -69.1204 -68.9585 -41.2763 -40.4351 -40.4187 -40.4033 -40.3224 -40.3044
   -21.0941 -20.8990 -20.6993 -20.1396 -19.7846 -19.4483 -19.3016 -19.1508
   -18.9955 -18.7600 -18.6116 -18.5300 -18.1172 -18.0846 -17.8999 -17.7035
   -12.3287 -12.0959 -12.0249 -11.8922 -11.6729 -11.6283 -11.5363 -10.9241
   -10.8696 -10.6035 -10.5074  -9.8398  -9.6757  -9.3182  -9.0922  -8.6252
    -8.6044  -8.5327  -8.3750  -8.3585  -8.1418  -8.0770  -8.0556  -8.0221
    -7.6667  -7.6054  -7.4754  -7.4572  -7.3191  -7.1534  -7.0502  -6.8287
    -6.6032  -6.3635  -6.1576  -6.1391  -5.9316  -5.9097  -5.7646  -5.7172
    -5.4341  -5.3681  -5.1559  -5.0257  -4.3930  -4.3454  -4.0574  -3.7379
    -1.5560   0.1211   0.1763   0.2764   0.3374   0.9980   1.0086   1.1772
     1.3384   1.4553   1.4726   1.5275   1.6849   1.8145   1.9778   2.0230
     2.1345   2.1858   2.2220   2.2694   2.3096   2.3655

          k =-0.3333 0.3849 0.0000 ( 59291 PWs)   bands (ev):

   -69.1204 -68.9585 -41.2763 -40.4352 -40.4187 -40.4032 -40.3224 -40.3044
   -21.0948 -20.8970 -20.7006 -20.1393 -19.7863 -19.4468 -19.2978 -19.1536
   -18.9976 -18.7585 -18.6126 -18.5297 -18.1188 -18.0825 -17.9000 -17.7037
   -12.3298 -12.0935 -12.0270 -11.8907 -11.6642 -11.6384 -11.5357 -10.9240
   -10.8696 -10.6031 -10.5076  -9.8400  -9.6757  -9.3181  -9.0931  -8.6266
    -8.6039  -8.5339  -8.3723  -8.3529  -8.1428  -8.0815  -8.0453  -8.0334
    -7.6668  -7.6044  -7.4803  -7.4524  -7.3180  -7.1533  -7.0508  -6.8341
    -6.6020  -6.3592  -6.1479  -6.1403  -5.9384  -5.9089  -5.7646  -5.7230
    -5.4339  -5.3642  -5.1575  -5.0258  -4.3951  -4.3429  -4.0573  -3.7380
    -1.5606   0.1191   0.1808   0.2796   0.3857   0.9903   1.0528   1.1894
     1.2529   1.3655   1.4598   1.5296   1.7134   1.9527   1.9720   2.0041
     2.0798   2.1647   2.2200   2.2383   2.3162   2.3552

          k =-0.1667-0.0962 0.0000 ( 59226 PWs)   bands (ev):

   -69.1204 -68.9585 -41.2763 -40.4351 -40.4186 -40.4032 -40.3224 -40.3044
   -21.2936 -20.5150 -20.3274 -20.3187 -19.9700 -19.9588 -19.7870 -18.7105
   -18.7001 -18.3530 -18.3504 -18.3351 -18.2469 -18.2425 -18.0589 -18.0517
   -12.4882 -12.4854 -12.3899 -11.5642 -11.5575 -11.4070 -11.4032 -10.9084
   -10.9051  -9.9109  -9.9083  -9.6573  -9.3566  -9.3540  -9.2112  -9.2097
    -9.0237  -9.0226  -8.8905  -8.3049  -8.3025  -7.8827  -7.8812  -7.8445
    -7.8250  -7.7524  -7.5810  -7.5532  -7.1000  -7.0589  -6.9408  -6.8705
    -6.8667  -6.8251  -6.5133  -6.5094  -6.2394  -5.3179  -5.2838  -5.1246
    -5.0469  -4.7745  -4.7703  -4.7234  -4.5827  -4.5772  -4.3251  -4.3036
    -1.5836   0.1178   0.1706   0.2718   0.5463   0.9825   1.0941   1.2877
     1.3442   1.4161   1.5186   1.5535   1.6488   1.7025   1.7962   1.9399
     1.9913   2.0651   2.1162   2.2660   2.3107   2.3323

          k =-0.0000-0.1925 0.0000 ( 59226 PWs)   bands (ev):

   -69.1204 -68.9585 -41.2763 -40.4351 -40.4186 -40.4032 -40.3224 -40.3044
   -21.2937 -20.5115 -20.3291 -20.3233 -19.9638 -19.9596 -19.7895 -18.7062
   -18.7017 -18.3748 -18.3418 -18.3354 -18.2393 -18.2358 -18.0595 -18.0545
   -12.4942 -12.4797 -12.3896 -11.5629 -11.5593 -11.4121 -11.3966 -10.9078
   -10.9067  -9.9109  -9.9085  -9.6572  -9.3592  -9.3502  -9.2116  -9.2104
    -9.0233  -9.0230  -8.8908  -8.3044  -8.3026  -7.8837  -7.8788  -7.8364
    -7.8235  -7.7535  -7.5804  -7.5724  -7.0726  -7.0719  -6.9398  -6.8702
    -6.8681  -6.8310  -6.5123  -6.5100  -6.2396  -5.2990  -5.2973  -5.1248
    -5.0465  -4.8087  -4.7573  -4.7227  -4.5759  -4.5641  -4.3193  -4.3141
    -1.5879   0.1159   0.1736   0.2729   0.6329   1.0475   1.0831   1.2040
     1.2600   1.4165   1.5086   1.5313   1.6077   1.7198   1.8190   1.8943
     1.9755   2.0495   2.1142   2.2845   2.3082   2.3166

          k = 0.5000-0.8660 0.0000 ( 59292 PWs)   bands (ev):

   -69.1204 -68.9585 -41.2763 -40.4352 -40.4186 -40.4033 -40.3224 -40.3044
   -21.0338 -21.0227 -20.4519 -20.4429 -19.4037 -19.4011 -19.3980 -19.3866
   -18.9741 -18.9680 -18.3047 -18.3020 -18.2999 -18.2890 -17.7750 -17.7673
   -12.0533 -12.0507 -12.0456 -12.0379 -11.8622 -11.8536 -11.3143 -11.3062
   -10.2177 -10.2130 -10.1167 -10.1143 -10.1094 -10.1087  -8.5612  -8.5314
    -8.5285  -8.5255  -8.5203  -8.5054  -7.8473  -7.8447  -7.8408  -7.8392
    -7.8038  -7.8009  -7.7529  -7.7229  -7.4741  -7.4665  -6.5940  -6.5879
    -6.3129  -6.3035  -6.2798  -6.2640  -6.1725  -6.1677  -5.6816  -5.6688
    -5.5288  -5.5219  -4.7012  -4.6855  -4.6749  -4.6532  -3.8597  -3.8383
    -1.5560   0.1206   0.1787   0.2791   0.3300   1.0013   1.0635   1.2031
     1.4290   1.5005   1.5290   1.5780   1.6213   1.6976   1.8075   1.9307
     1.9543   2.2057   2.2430   2.2559   2.3036   2.3405

          k =-1.0000 0.0000 0.0000 ( 59292 PWs)   bands (ev):

   -69.1204 -68.9585 -41.2763 -40.4352 -40.4186 -40.4033 -40.3223 -40.3044
   -21.0514 -21.0032 -20.4517 -20.4464 -19.4097 -19.4016 -19.3876 -19.3865
   -18.9898 -18.9532 -18.3507 -18.2920 -18.2881 -18.2654 -17.7742 -17.7694
   -12.0884 -12.0491 -12.0300 -12.0178 -11.8600 -11.8557 -11.3289 -11.2925
   -10.2236 -10.2186 -10.1116 -10.1111 -10.1091 -10.1074  -8.5859  -8.5563
    -8.5305  -8.5159  -8.5011  -8.4737  -7.8529  -7.8484  -7.8450  -7.8404
    -7.7958  -7.7957  -7.7455  -7.7401  -7.4921  -7.4499  -6.5915  -6.5883
    -6.3119  -6.3094  -6.2649  -6.2639  -6.1873  -6.1550  -5.7027  -5.6493
    -5.5446  -5.5061  -4.7654  -4.6816  -4.6464  -4.6256  -3.8515  -3.8471
    -1.5740   0.1168   0.1881   0.2822   0.6075   0.9879   1.0556   1.1386
     1.3368   1.4201   1.4723   1.5229   1.6163   1.6460   1.6631   1.8048
     2.0659   2.2327   2.2710   2.2844   2.3062   2.3230

     the Fermi energy is    -0.5113 ev

!    total energy              =   -1133.74731787 Ry

     total all-electron energy =     -6753.423021 Ry
     estimated scf accuracy    <       0.00000002 Ry
     smearing contrib. (-TS)   =      -0.00000000 Ry
     internal energy E=F+TS    =   -1133.74731787 Ry

     The total energy is F=E-TS. E is the sum of the following terms:
     one-electron contribution =   -3990.30131134 Ry
     hartree contribution      =    2023.14921527 Ry
     xc contribution           =    -186.12881115 Ry
     ewald contribution        =    1378.91209269 Ry
     DFT-D3 Dispersion         =      -0.12155944 Ry
     one-center paw contrib.   =    -359.25694390 Ry

     total magnetization       =    10.00 Bohr mag/cell
     absolute magnetization    =    10.02 Bohr mag/cell

     convergence has been achieved in  15 iterations

     Writing output data file ./mytmp/Crdimer0.11-0.3.save/
 
     init_run     :     18.58s CPU     19.83s WALL (       1 calls)
     electrons    :    513.97s CPU    550.21s WALL (       1 calls)

     Called by init_run:
     wfcinit      :     13.84s CPU     14.68s WALL (       1 calls)
     potinit      :      1.53s CPU      1.56s WALL (       1 calls)
     hinit0       :      1.51s CPU      1.60s WALL (       1 calls)

     Called by electrons:
     c_bands      :    410.18s CPU    436.89s WALL (      15 calls)
     sum_band     :     80.27s CPU     86.08s WALL (      15 calls)
     v_of_rho     :      4.92s CPU      5.28s WALL (      16 calls)
     newd         :      9.92s CPU     13.30s WALL (      16 calls)
     PAW_pot      :      7.90s CPU      7.99s WALL (      16 calls)
     mix_rho      :      1.07s CPU      1.09s WALL (      15 calls)

     Called by c_bands:
     init_us_2    :      5.44s CPU      5.50s WALL (     930 calls)
     cegterg      :    396.95s CPU    423.57s WALL (     450 calls)

     Called by *egterg:
     cdiaghg      :     26.20s CPU     41.84s WALL (    2946 calls)
     h_psi        :    255.74s CPU    265.88s WALL (    2976 calls)
     s_psi        :     28.92s CPU     29.08s WALL (    2976 calls)
     g_psi        :      0.75s CPU      0.78s WALL (    2496 calls)

     Called by h_psi:
     h_psi:calbec :     29.62s CPU     30.39s WALL (    2976 calls)
     vloc_psi     :    194.42s CPU    203.56s WALL (    2976 calls)
     add_vuspsi   :     29.44s CPU     29.65s WALL (    2976 calls)

     General routines
     calbec       :     39.63s CPU     40.60s WALL (    3426 calls)
     fft          :      4.29s CPU      4.96s WALL (     394 calls)
     ffts         :      0.12s CPU      0.13s WALL (      62 calls)
     fftw         :    200.79s CPU    210.12s WALL (  264096 calls)
     interpolate  :      0.44s CPU      0.47s WALL (      32 calls)
 
     Parallel routines
     fft_scatt_xy :     32.08s CPU     33.38s WALL (  264552 calls)
     fft_scatt_yz :     78.97s CPU     83.83s WALL (  264552 calls)
 
     PWSCF        :   8m54.57s CPU   9m34.11s WALL

 
   This run was terminated on:  11:39:22  31Mar2021            

=------------------------------------------------------------------------------=
   JOB DONE.
=------------------------------------------------------------------------------=
