
     Program PWSCF v.6.7MaX starts on 31Mar2021 at 13:34:27 

     This program is part of the open-source Quantum ESPRESSO suite
     for quantum simulation of materials; please cite
         "P. Giannozzi et al., J. Phys.:Condens. Matter 21 395502 (2009);
         "P. Giannozzi et al., J. Phys.:Condens. Matter 29 465901 (2017);
          URL http://www.quantum-espresso.org", 
     in publications or presentations arising from this work. More details at
     http://www.quantum-espresso.org/quote

     Parallel version (MPI), running on    48 processors

     MPI processes distributed on     1 nodes
     R & G space division:  proc/nbgrp/npool/nimage =      48
     Reading input from Crdimer0.13-0.4.scf.in

     Current dimensions of program PWSCF are:
     Max number of different atomic species (ntypx) = 10
     Max number of k-points (npk) =  40000
     Max angular momentum in pseudopotentials (lmaxx) =  3
     file N.pbe-n-kjpaw_psl.1.0.0.UPF: wavefunction(s)  2S renormalized
     file Cr.pbe-spn-kjpaw_psl.1.0.0.UPF: wavefunction(s)  3S 3P 3D renormalized
     file Cr.pbe-spn-kjpaw_psl.1.0.0.UPF: wavefunction(s)  3S 3P 3D renormalized

     --------------------------------------------
     Parameters for DFT-D3 Dispersion Correction:
     --------------------------------------------
       Reference C6 values for interpolation: 

         atom   Coordination number   C6
         B          0.000           214.36
         B          0.971           150.74
         B          1.944           106.23
         B          2.913            62.89
         B          4.586            56.06
         N          0.000            50.54
         N          0.994            44.25
         N          2.014            39.35
         N          2.990            31.16
         Cr1        0.000          1381.48
         Cr1        1.827           571.38
         Cr1       10.619           306.69
         Cr2        0.000          1381.48
         Cr2        1.827           571.38
         Cr2       10.619           306.69

       Values used:

         atom   Coordination number  R0_AB[au]  C6      C8
         B          3.337            3.039     62.89   2505.97
         B          3.336            3.039     62.89   2505.98
         B          3.336            3.039     62.89   2505.99
         B          3.335            3.039     62.89   2506.01
         B          3.354            3.039     62.88   2505.51
         B          3.335            3.039     62.89   2506.00
         N          3.134            2.478     31.22    688.69
         N          3.143            2.478     31.21    688.62
         N          3.135            2.478     31.22    688.68
         N          3.134            2.478     31.22    688.70
         N          3.154            2.478     31.21    688.52
         N          3.135            2.478     31.22    688.69
         N          3.146            2.478     31.21    688.59
         N          3.134            2.478     31.22    688.69
         N          3.134            2.478     31.22    688.70
         B          3.349            3.039     62.88   2505.65
         B          3.336            3.039     62.89   2505.98
         B          3.335            3.039     62.89   2506.00
         B          3.354            3.039     62.88   2505.51
         B          3.337            3.039     62.89   2505.97
         B          3.349            3.039     62.88   2505.65
         N          3.146            2.478     31.21    688.59
         B          3.336            3.039     62.89   2506.00
         B          3.359            3.039     62.88   2505.37
         B          3.336            3.039     62.89   2506.00
         N          3.135            2.478     31.22    688.69
         N          3.143            2.478     31.21    688.62
         N          3.134            2.478     31.22    688.70
         N          3.134            2.478     31.22    688.70
         N          3.135            2.478     31.22    688.68
         N          3.134            2.478     31.22    688.70
         B          3.336            3.039     62.89   2506.00
         Cr1        0.972            3.252    763.39  70452.68
         Cr2        0.972            3.252    763.39  70452.68

         Molecular C6 ( Ry / a.u.^6 ) =     71270.30


     Subspace diagonalization in iterative solution of the eigenvalue problem:
     one sub-group per band group will be used
     scalapack distributed-memory algorithm (size of sub-group:  6*  6 procs)

 
     Parallelization info
     --------------------
     sticks:   dense  smooth     PW     G-vecs:    dense   smooth      PW
     Min         235      98     26                36277     9874    1408
     Max         236      99     27                36282     9883    1425
     Sum       11311    4741   1285              1741401   474235   68095
 


     bravais-lattice index     =            4
     lattice parameter (alat)  =      18.9275  a.u.
     unit-cell volume          =   10553.3021 (a.u.)^3
     number of atoms/cell      =           34
     number of atomic types    =            4
     number of electrons       =       156.00
     number of Kohn-Sham states=           94
     kinetic-energy cutoff     =      48.0000  Ry
     charge density cutoff     =     457.0000  Ry
     scf convergence threshold =      1.0E-07
     mixing beta               =       0.5000
     number of iterations used =            8  plain     mixing
     Exchange-correlation= SLA  PW   PBX  PBC
                           (   1   4   3   4   0   0   0)

     celldm(1)=  18.927497  celldm(2)=   0.000000  celldm(3)=   1.797125
     celldm(4)=   0.000000  celldm(5)=   0.000000  celldm(6)=   0.000000

     crystal axes: (cart. coord. in units of alat)
               a(1) = (   1.000000   0.000000   0.000000 )  
               a(2) = (  -0.500000   0.866025   0.000000 )  
               a(3) = (   0.000000   0.000000   1.797125 )  

     reciprocal axes: (cart. coord. in units 2 pi/alat)
               b(1) = (  1.000000  0.577350  0.000000 )  
               b(2) = (  0.000000  1.154701  0.000000 )  
               b(3) = (  0.000000  0.000000  0.556444 )  


     PseudoPot. # 1 for B  read from file:
     /home/sf05/q-e-qe-6.7MaX-Release/pseudo/B.pbe-n-kjpaw_psl.1.0.0.UPF
     MD5 check sum: d9c678ba5d3b2fd7b74e61139c9288d8
     Pseudo is Projector augmented-wave + core cor, Zval =  3.0
     Generated using "atomic" code by A. Dal Corso  v.5.1.2
     Shape of augmentation charge: PSQ
     Using radial grid of 1059 points,  4 beta functions with: 
                l(1) =   0
                l(2) =   0
                l(3) =   1
                l(4) =   1
     Q(r) pseudized with 0 coefficients 


     PseudoPot. # 2 for N  read from file:
     /home/sf05/q-e-qe-6.7MaX-Release/pseudo/N.pbe-n-kjpaw_psl.1.0.0.UPF
     MD5 check sum: e0e4e94a9c4025c5b51bd7d8793849bd
     Pseudo is Projector augmented-wave + core cor, Zval =  5.0
     Generated using "atomic" code by A. Dal Corso  v.5.1.2
     Shape of augmentation charge: PSQ
     Using radial grid of 1085 points,  4 beta functions with: 
                l(1) =   0
                l(2) =   0
                l(3) =   1
                l(4) =   1
     Q(r) pseudized with 0 coefficients 


     PseudoPot. # 3 for Cr read from file:
     /home/sf05/q-e-qe-6.7MaX-Release/pseudo/Cr.pbe-spn-kjpaw_psl.1.0.0.UPF
     MD5 check sum: 198f1a2427a48552563eee314eba32ba
     Pseudo is Projector augmented-wave + core cor, Zval = 14.0
     Generated using &quot;atomic&quot; code by A. Dal Corso  v.6.3
     Shape of augmentation charge: PSQ
     Using radial grid of 1183 points,  6 beta functions with: 
                l(1) =   0
                l(2) =   0
                l(3) =   1
                l(4) =   1
                l(5) =   2
                l(6) =   2
     Q(r) pseudized with 0 coefficients 


     PseudoPot. # 4 for Cr read from file:
     /home/sf05/q-e-qe-6.7MaX-Release/pseudo/Cr.pbe-spn-kjpaw_psl.1.0.0.UPF
     MD5 check sum: 198f1a2427a48552563eee314eba32ba
     Pseudo is Projector augmented-wave + core cor, Zval = 14.0
     Generated using &quot;atomic&quot; code by A. Dal Corso  v.6.3
     Shape of augmentation charge: PSQ
     Using radial grid of 1183 points,  6 beta functions with: 
                l(1) =   0
                l(2) =   0
                l(3) =   1
                l(4) =   1
                l(5) =   2
                l(6) =   2
     Q(r) pseudized with 0 coefficients 


     atomic species   valence    mass     pseudopotential
        B              3.00    10.81100     B ( 1.00)
        N              5.00    14.00674     N ( 1.00)
        Cr1           14.00    51.99610     Cr( 1.00)
        Cr2           14.00    51.99610     Cr( 1.00)

     Starting magnetic structure 
     atomic species   magnetization
        B            0.000
        N            0.000
        Cr1          1.000
        Cr2          1.000

     No symmetry found



   Cartesian axes

     site n.     atom                  positions (alat units)
         1           B   tau(   1) = (  -0.1250000   0.2165064   0.8985623  )
         2           B   tau(   2) = (   0.3750000   0.6495191   0.8985623  )
         3           B   tau(   3) = (   0.2500000   0.0000000   0.8985623  )
         4           B   tau(   4) = (   0.7500000   0.0000000   0.8985623  )
         5           B   tau(   5) = (   0.1250000   0.2165064   0.8985623  )
         6           B   tau(   6) = (  -0.3750000   0.6495191   0.8985623  )
         7           N   tau(   7) = (   0.7500005   0.2886748   0.8985623  )
         8           N   tau(   8) = (   0.3750005   0.5051812   0.8985623  )
         9           N   tau(   9) = (   0.3750005   0.0721685   0.8985623  )
        10           N   tau(  10) = (   0.6250005   0.0721685   0.8985623  )
        11           N   tau(  11) = (   0.2500005   0.2886748   0.8985623  )
        12           N   tau(  12) = (   0.6250005   0.5051812   0.8985623  )
        13           N   tau(  13) = (   0.0000005   0.2886748   0.8985623  )
        14           N   tau(  14) = (   0.2500005   0.7216875   0.8985623  )
        15           N   tau(  15) = (  -0.2499995   0.7216875   0.8985623  )
        16           B   tau(  16) = (   0.0000000   0.4330127   0.8985623  )
        17           B   tau(  17) = (   0.1250000   0.6495191   0.8985623  )
        18           B   tau(  18) = (  -0.1250000   0.6495191   0.8985623  )
        19           B   tau(  19) = (   0.3750000   0.2165064   0.8985623  )
        20           B   tau(  20) = (   0.6250000   0.2165064   0.8985623  )
        21           B   tau(  21) = (   0.5000000   0.4330127   0.8985623  )
        22           N   tau(  22) = (   0.5000005   0.2886748   0.8985623  )
        23           B   tau(  23) = (  -0.2500000   0.4330127   0.8985623  )
        24           B   tau(  24) = (   0.2500000   0.4330127   0.8985623  )
        25           B   tau(  25) = (   0.5000000   0.0000000   0.8985623  )
        26           N   tau(  26) = (  -0.1249995   0.5051812   0.8985623  )
        27           N   tau(  27) = (   0.1250005   0.5051812   0.8985623  )
        28           N   tau(  28) = (   0.0000005   0.7216875   0.8985623  )
        29           N   tau(  29) = (   0.5000005   0.7216875   0.8985623  )
        30           N   tau(  30) = (   0.1250005   0.0721685   0.8985623  )
        31           N   tau(  31) = (   0.8750005   0.0721685   0.8985623  )
        32           B   tau(  32) = (   0.0000000   0.0000000   0.8985623  )
        33           Cr1 tau(  33) = (   0.3800000   0.3464102   1.2040735  )
        34           Cr2 tau(  34) = (   0.1200000   0.3464102   1.2040735  )

     number of k points=    15  Gaussian smearing, width (Ry)=  0.0000
                       cart. coord. in units 2pi/alat
        k(    1) = (   0.1666667   0.2886751   0.0000000), wk =   0.0740741
        k(    2) = (   0.1666667  -0.4811252   0.0000000), wk =   0.0740741
        k(    3) = (   0.1666667  -0.0962250   0.0000000), wk =   0.0740741
        k(    4) = (  -0.5000000  -0.8660254   0.0000000), wk =   0.0370370
        k(    5) = (  -0.1666667   0.2886751   0.0000000), wk =   0.0740741
        k(    6) = (   0.3333333   0.0000000   0.0000000), wk =   0.0740741
        k(    7) = (  -0.1666667  -0.4811252   0.0000000), wk =   0.0740741
        k(    8) = (   0.5000000  -0.0962250   0.0000000), wk =   0.0740741
        k(    9) = (  -0.3333333  -0.3849002   0.0000000), wk =   0.0740741
        k(   10) = (   0.5000000   0.0962250   0.0000000), wk =   0.0740741
        k(   11) = (  -0.3333333   0.3849002   0.0000000), wk =   0.0740741
        k(   12) = (  -0.1666667  -0.0962250   0.0000000), wk =   0.0740741
        k(   13) = (  -0.0000000  -0.1924501   0.0000000), wk =   0.0740741
        k(   14) = (   0.5000000  -0.8660254   0.0000000), wk =   0.0370370
        k(   15) = (  -1.0000000   0.0000000   0.0000000), wk =   0.0370370

     Dense  grid:  1741401 G-vectors     FFT dimensions: ( 135, 135, 240)

     Smooth grid:   474235 G-vectors     FFT dimensions: (  90,  90, 160)

     Estimated max dynamical RAM per process >     218.62 MB

     Estimated total dynamical RAM >      10.25 GB
     Generating pointlists ...
     new r_m :   0.0595 (alat units)  1.1269 (a.u.) for type    1
     new r_m :   0.0595 (alat units)  1.1269 (a.u.) for type    2
     new r_m :   0.1072 (alat units)  2.0300 (a.u.) for type    3
     new r_m :   0.1072 (alat units)  2.0300 (a.u.) for type    4

     Initial potential from superposition of free atoms

     starting charge  155.99382, renormalised to  156.00000

     negative rho (up, down):  6.745E-03 4.655E-04
     Starting wfcs are  148 randomized atomic wfcs
     Checking if some PAW data can be deallocated... 

     total cpu time spent up to now is       20.7 secs

     Self-consistent Calculation

     iteration #  1     ecut=    48.00 Ry     beta= 0.50
     Davidson diagonalization with overlap
     ethr =  1.00E-02,  avg # of iterations =  2.8

     negative rho (up, down):  4.954E-03 2.908E-03

     total cpu time spent up to now is       64.2 secs

     total energy              =   -1130.71361116 Ry
     estimated scf accuracy    <      11.36590465 Ry

     total magnetization       =    12.00 Bohr mag/cell
     absolute magnetization    =    12.11 Bohr mag/cell

     iteration #  2     ecut=    48.00 Ry     beta= 0.50
     Davidson diagonalization with overlap
     ethr =  7.29E-03,  avg # of iterations =  2.8

     negative rho (up, down):  8.670E-03 7.650E-03

     total cpu time spent up to now is      104.9 secs

     total energy              =   -1132.97095989 Ry
     estimated scf accuracy    <       3.61382329 Ry

     total magnetization       =    10.00 Bohr mag/cell
     absolute magnetization    =    10.10 Bohr mag/cell

     iteration #  3     ecut=    48.00 Ry     beta= 0.50
     Davidson diagonalization with overlap
     ethr =  2.32E-03,  avg # of iterations =  7.1

     negative rho (up, down):  4.337E-03 3.830E-03

     total cpu time spent up to now is      146.9 secs

     total energy              =   -1133.55146568 Ry
     estimated scf accuracy    <       0.89451013 Ry

     total magnetization       =    10.00 Bohr mag/cell
     absolute magnetization    =    10.12 Bohr mag/cell

     iteration #  4     ecut=    48.00 Ry     beta= 0.50
     Davidson diagonalization with overlap
     ethr =  5.73E-04,  avg # of iterations =  6.7

     negative rho (up, down):  7.701E-03 7.758E-03

     total cpu time spent up to now is      186.7 secs

     total energy              =   -1133.74755200 Ry
     estimated scf accuracy    <       0.61232913 Ry

     total magnetization       =    10.00 Bohr mag/cell
     absolute magnetization    =    10.01 Bohr mag/cell

     iteration #  5     ecut=    48.00 Ry     beta= 0.50
     Davidson diagonalization with overlap
     ethr =  3.93E-04,  avg # of iterations =  6.6

     negative rho (up, down):  4.487E-03 4.592E-03

     total cpu time spent up to now is      228.1 secs

     total energy              =   -1133.80546656 Ry
     estimated scf accuracy    <       0.08382934 Ry

     total magnetization       =    10.00 Bohr mag/cell
     absolute magnetization    =    10.01 Bohr mag/cell

     iteration #  6     ecut=    48.00 Ry     beta= 0.50
     Davidson diagonalization with overlap
     ethr =  5.37E-05,  avg # of iterations =  9.4

     negative rho (up, down):  3.710E-03 4.020E-03

     total cpu time spent up to now is      274.2 secs

     total energy              =   -1133.81469777 Ry
     estimated scf accuracy    <       0.01876138 Ry

     total magnetization       =    10.00 Bohr mag/cell
     absolute magnetization    =    10.02 Bohr mag/cell

     iteration #  7     ecut=    48.00 Ry     beta= 0.50
     Davidson diagonalization with overlap
     ethr =  1.20E-05,  avg # of iterations =  8.5

     negative rho (up, down):  3.450E-03 3.967E-03

     total cpu time spent up to now is      316.8 secs

     total energy              =   -1133.81837039 Ry
     estimated scf accuracy    <       0.00363871 Ry

     total magnetization       =    10.00 Bohr mag/cell
     absolute magnetization    =    10.01 Bohr mag/cell

     iteration #  8     ecut=    48.00 Ry     beta= 0.50
     Davidson diagonalization with overlap
     ethr =  2.33E-06,  avg # of iterations =  8.4

     negative rho (up, down):  3.265E-03 3.862E-03

     total cpu time spent up to now is      363.1 secs

     total energy              =   -1133.81890669 Ry
     estimated scf accuracy    <       0.00104418 Ry

     total magnetization       =    10.00 Bohr mag/cell
     absolute magnetization    =    10.01 Bohr mag/cell

     iteration #  9     ecut=    48.00 Ry     beta= 0.50
     Davidson diagonalization with overlap
     ethr =  6.69E-07,  avg # of iterations =  3.1

     negative rho (up, down):  3.190E-03 3.846E-03

     total cpu time spent up to now is      397.4 secs

     total energy              =   -1133.81904701 Ry
     estimated scf accuracy    <       0.00009853 Ry

     total magnetization       =    10.00 Bohr mag/cell
     absolute magnetization    =    10.01 Bohr mag/cell

     iteration # 10     ecut=    48.00 Ry     beta= 0.50
     Davidson diagonalization with overlap
     ethr =  6.32E-08,  avg # of iterations =  4.2

     negative rho (up, down):  3.176E-03 3.856E-03

     total cpu time spent up to now is      441.2 secs

     total energy              =   -1133.81910337 Ry
     estimated scf accuracy    <       0.00001857 Ry

     total magnetization       =    10.00 Bohr mag/cell
     absolute magnetization    =    10.01 Bohr mag/cell

     iteration # 11     ecut=    48.00 Ry     beta= 0.50
     Davidson diagonalization with overlap
     ethr =  1.19E-08,  avg # of iterations =  3.8

     negative rho (up, down):  3.169E-03 3.863E-03

     total cpu time spent up to now is      479.2 secs

     total energy              =   -1133.81911756 Ry
     estimated scf accuracy    <       0.00000479 Ry

     total magnetization       =    10.00 Bohr mag/cell
     absolute magnetization    =    10.01 Bohr mag/cell

     iteration # 12     ecut=    48.00 Ry     beta= 0.50
     Davidson diagonalization with overlap
     ethr =  3.07E-09,  avg # of iterations =  4.2

     negative rho (up, down):  3.166E-03 3.869E-03

     total cpu time spent up to now is      515.5 secs

     total energy              =   -1133.81912168 Ry
     estimated scf accuracy    <       0.00000125 Ry

     total magnetization       =    10.00 Bohr mag/cell
     absolute magnetization    =    10.01 Bohr mag/cell

     iteration # 13     ecut=    48.00 Ry     beta= 0.50
     Davidson diagonalization with overlap
     ethr =  8.00E-10,  avg # of iterations =  4.3

     negative rho (up, down):  3.164E-03 3.870E-03

     total cpu time spent up to now is      552.3 secs

     total energy              =   -1133.81912308 Ry
     estimated scf accuracy    <       0.00000020 Ry

     total magnetization       =    10.00 Bohr mag/cell
     absolute magnetization    =    10.01 Bohr mag/cell

     iteration # 14     ecut=    48.00 Ry     beta= 0.50
     Davidson diagonalization with overlap
     ethr =  1.28E-10,  avg # of iterations =  4.5

     negative rho (up, down):  3.163E-03 3.871E-03
 
     Magnetic moment per site:
     atom:    1    charge:    0.8808    magn:    0.0008    constr:    0.0000
     atom:    2    charge:    0.8802    magn:    0.0006    constr:    0.0000
     atom:    3    charge:    0.8800    magn:    0.0001    constr:    0.0000
     atom:    4    charge:    0.8804    magn:    0.0001    constr:    0.0000
     atom:    5    charge:    0.8802    magn:    0.0002    constr:    0.0000
     atom:    6    charge:    0.8804    magn:    0.0001    constr:    0.0000
     atom:    7    charge:    2.8610    magn:    0.0003    constr:    0.0000
     atom:    8    charge:    2.8607    magn:    0.0046    constr:    0.0000
     atom:    9    charge:    2.8608    magn:    0.0017    constr:    0.0000
     atom:   10    charge:    2.8609    magn:    0.0004    constr:    0.0000
     atom:   11    charge:    2.8605    magn:    0.0085    constr:    0.0000
     atom:   12    charge:    2.8610    magn:    0.0007    constr:    0.0000
     atom:   13    charge:    2.8596    magn:    0.0052    constr:    0.0000
     atom:   14    charge:    2.8598    magn:    0.0003    constr:    0.0000
     atom:   15    charge:    2.8600    magn:    0.0000    constr:    0.0000
     atom:   16    charge:    0.8804    magn:   -0.0000    constr:    0.0000
     atom:   17    charge:    0.8799    magn:    0.0006    constr:    0.0000
     atom:   18    charge:    0.8800    magn:    0.0001    constr:    0.0000
     atom:   19    charge:    0.8796    magn:    0.0002    constr:    0.0000
     atom:   20    charge:    0.8802    magn:    0.0008    constr:    0.0000
     atom:   21    charge:    0.8802    magn:   -0.0000    constr:    0.0000
     atom:   22    charge:    2.8609    magn:    0.0052    constr:    0.0000
     atom:   23    charge:    0.8803    magn:    0.0001    constr:    0.0000
     atom:   24    charge:    0.8790    magn:   -0.0003    constr:    0.0000
     atom:   25    charge:    0.8799    magn:    0.0001    constr:    0.0000
     atom:   26    charge:    2.8599    magn:    0.0007    constr:    0.0000
     atom:   27    charge:    2.8596    magn:    0.0046    constr:    0.0000
     atom:   28    charge:    2.8598    magn:    0.0002    constr:    0.0000
     atom:   29    charge:    2.8596    magn:    0.0002    constr:    0.0000
     atom:   30    charge:    2.8595    magn:    0.0017    constr:    0.0000
     atom:   31    charge:    2.8596    magn:    0.0004    constr:    0.0000
     atom:   32    charge:    0.8802    magn:    0.0001    constr:    0.0000
     atom:   33    charge:   12.2610    magn:    4.0535    constr:    0.0000
     atom:   34    charge:   12.2609    magn:    4.0535    constr:    0.0000

     total cpu time spent up to now is      590.9 secs

     End of self-consistent calculation

 ------ SPIN UP ------------


          k = 0.1667 0.2887 0.0000 ( 59267 PWs)   bands (ev):

   -72.9172 -72.8936 -44.5323 -44.3438 -44.3092 -44.2891 -44.2818 -44.2614
   -21.2463 -20.6594 -20.6557 -20.1066 -20.0930 -19.5856 -19.5833 -19.0987
   -18.6964 -18.6912 -18.4594 -18.4470 -18.1940 -18.0844 -18.0770 -17.8488
   -12.4839 -12.2079 -12.1989 -11.8202 -11.8171 -11.6580 -11.1909 -11.1890
   -10.3912 -10.3670 -10.1166 -10.1145  -9.5885  -9.5873  -8.8400  -8.8236
    -8.8204  -8.7650  -8.7616  -8.5957  -8.1963  -8.0543  -8.0112  -7.8295
    -7.8255  -7.4380  -7.4361  -7.2815  -7.2572  -7.2071  -7.2062  -6.9626
    -6.9516  -6.5682  -6.5336  -6.1530  -6.1522  -5.8705  -5.4177  -5.2916
    -5.2778  -5.1994  -4.9139  -4.8972  -4.5059  -4.3550  -4.3396  -3.9789
    -3.1057  -2.2746  -2.2004  -1.9980  -1.6996  -1.6627  -1.4473  -1.4406
    -1.3349  -1.2713  -1.2209  -0.5703   0.6300   1.0047   1.0290   1.1757
     1.2871   1.4734   1.5093   1.5853   1.6068   1.7778

          k = 0.1667-0.4811 0.0000 ( 59291 PWs)   bands (ev):

   -72.9172 -72.8936 -44.5323 -44.3438 -44.3092 -44.2891 -44.2818 -44.2614
   -21.1162 -20.9110 -20.7224 -20.1603 -19.8036 -19.4657 -19.3160 -19.1743
   -19.0134 -18.7782 -18.6412 -18.5428 -18.1486 -18.0876 -17.9215 -17.7230
   -12.3482 -12.1131 -12.0438 -11.9057 -11.6798 -11.6580 -11.5520 -10.9410
   -10.8898 -10.6231 -10.5222  -9.8597  -9.6926  -9.3354  -9.1102  -8.6682
    -8.6223  -8.5526  -8.3880  -8.3664  -8.1607  -8.1211  -8.0623  -8.0494
    -7.6882  -7.6226  -7.4936  -7.4733  -7.3552  -7.1702  -7.0668  -6.8595
    -6.6213  -6.3879  -6.1769  -6.1571  -5.9708  -5.9285  -5.7830  -5.7444
    -5.4505  -5.3965  -5.2106  -5.0400  -4.4444  -4.3460  -4.0881  -3.7665
    -3.1036  -2.2746  -2.2004  -1.9944  -1.6989  -1.6625  -1.4498  -1.4410
    -1.3354  -1.2710  -1.2215  -0.5748   0.5432   1.0039   1.0676   1.1073
     1.2239   1.2514   1.3707   1.8482   1.9041   2.1331

          k = 0.1667-0.0962 0.0000 ( 59226 PWs)   bands (ev):

   -72.9172 -72.8936 -44.5323 -44.3438 -44.3092 -44.2891 -44.2818 -44.2614
   -21.3127 -20.5354 -20.3450 -20.3376 -19.9883 -19.9797 -19.8047 -18.7285
   -18.7220 -18.3759 -18.3639 -18.3564 -18.2704 -18.2583 -18.0767 -18.0699
   -12.5084 -12.5003 -12.4075 -11.5815 -11.5753 -11.4286 -11.4170 -10.9257
   -10.9229  -9.9279  -9.9262  -9.6753  -9.3763  -9.3698  -9.2291  -9.2277
    -9.0412  -9.0396  -8.9232  -8.3222  -8.3214  -7.9018  -7.8975  -7.8807
    -7.8443  -7.7696  -7.6085  -7.5803  -7.1359  -7.0894  -6.9587  -6.8875
    -6.8845  -6.8496  -6.5303  -6.5277  -6.2567  -5.3493  -5.3167  -5.1425
    -5.0645  -4.8074  -4.7948  -4.7557  -4.6162  -4.6009  -4.3539  -4.3293
    -3.1082  -2.2745  -2.2004  -2.0016  -1.7013  -1.6629  -1.4451  -1.4400
    -1.3344  -1.2716  -1.2204  -0.5655   0.7344   0.9499   1.0014   1.1932
     1.2658   1.3345   1.5840   1.5889   1.7125   1.9613

          k =-0.5000-0.8660 0.0000 ( 59292 PWs)   bands (ev):

   -72.9172 -72.8936 -44.5323 -44.3438 -44.3092 -44.2891 -44.2818 -44.2614
   -21.0486 -21.0467 -20.4694 -20.4626 -19.4276 -19.4201 -19.4134 -19.4061
   -18.9907 -18.9888 -18.3264 -18.3224 -18.3123 -18.3117 -17.7929 -17.7874
   -12.0713 -12.0664 -12.0605 -12.0601 -11.8785 -11.8718 -11.3284 -11.3270
   -10.2339 -10.2314 -10.1351 -10.1304 -10.1294 -10.1256  -8.5932  -8.5472
    -8.5460  -8.5434  -8.5418  -8.5389  -7.8636  -7.8618  -7.8593  -7.8570
    -7.8217  -7.8205  -7.7806  -7.7516  -7.4887  -7.4861  -6.6104  -6.6074
    -6.3524  -6.3290  -6.3140  -6.2922  -6.1887  -6.1871  -5.7060  -5.7002
    -5.5443  -5.5415  -4.7258  -4.7191  -4.7052  -4.6821  -3.8884  -3.8659
    -3.0964  -2.2735  -2.2012  -1.9960  -1.6994  -1.6635  -1.4484  -1.4413
    -1.3415  -1.2751  -1.2201  -0.6843   0.7048   1.0454   1.0976   1.1478
     1.4634   1.5606   1.5966   1.6146   1.6810   1.8228

          k =-0.1667 0.2887 0.0000 ( 59267 PWs)   bands (ev):

   -72.9172 -72.8936 -44.5323 -44.3438 -44.3092 -44.2891 -44.2818 -44.2614
   -21.2463 -20.6594 -20.6556 -20.1066 -20.0930 -19.5856 -19.5833 -19.0987
   -18.6964 -18.6912 -18.4595 -18.4470 -18.1940 -18.0844 -18.0770 -17.8488
   -12.4839 -12.2080 -12.1989 -11.8202 -11.8172 -11.6580 -11.1908 -11.1890
   -10.3913 -10.3670 -10.1166 -10.1145  -9.5885  -9.5872  -8.8400  -8.8236
    -8.8204  -8.7650  -8.7616  -8.5956  -8.1963  -8.0543  -8.0112  -7.8295
    -7.8254  -7.4380  -7.4361  -7.2815  -7.2572  -7.2070  -7.2062  -6.9627
    -6.9517  -6.5682  -6.5336  -6.1531  -6.1521  -5.8705  -5.4178  -5.2916
    -5.2779  -5.1993  -4.9139  -4.8972  -4.5059  -4.3550  -4.3396  -3.9788
    -3.1057  -2.2746  -2.2004  -1.9980  -1.6996  -1.6627  -1.4473  -1.4406
    -1.3349  -1.2713  -1.2209  -0.5703   0.6300   1.0047   1.0290   1.1758
     1.2871   1.4734   1.5093   1.5853   1.6068   1.7779

          k = 0.3333 0.0000 0.0000 ( 59267 PWs)   bands (ev):

   -72.9172 -72.8936 -44.5323 -44.3438 -44.3092 -44.2891 -44.2818 -44.2614
   -21.2459 -20.6863 -20.6286 -20.1080 -20.0899 -19.6137 -19.5572 -19.1009
   -18.7141 -18.6682 -18.4627 -18.4457 -18.1894 -18.1082 -18.0603 -17.8478
   -12.4827 -12.2106 -12.1968 -11.8305 -11.8097 -11.6561 -11.2095 -11.1701
   -10.3906 -10.3665 -10.1310 -10.1012  -9.5948  -9.5795  -8.8419  -8.8262
    -8.8130  -8.7883  -8.7397  -8.5964  -8.1984  -8.1014  -7.9636  -7.8284
    -7.8242  -7.4443  -7.4295  -7.2916  -7.2416  -7.2176  -7.1953  -6.9650
    -6.9511  -6.6173  -6.4916  -6.1560  -6.1483  -5.8778  -5.4178  -5.3086
    -5.2485  -5.1997  -4.9279  -4.8859  -4.4970  -4.3858  -4.3221  -3.9775
    -3.1013  -2.2736  -2.2010  -1.9991  -1.7009  -1.6633  -1.4464  -1.4405
    -1.3381  -1.2741  -1.2200  -0.6465   0.7417   1.0067   1.1848   1.2352
     1.3265   1.4597   1.5272   1.5668   1.5934   1.7932

          k =-0.1667-0.4811 0.0000 ( 59291 PWs)   bands (ev):

   -72.9172 -72.8936 -44.5323 -44.3438 -44.3092 -44.2891 -44.2818 -44.2614
   -21.1162 -20.9110 -20.7224 -20.1603 -19.8036 -19.4657 -19.3160 -19.1743
   -19.0134 -18.7782 -18.6412 -18.5428 -18.1486 -18.0876 -17.9215 -17.7230
   -12.3482 -12.1131 -12.0438 -11.9056 -11.6798 -11.6580 -11.5521 -10.9410
   -10.8898 -10.6231 -10.5222  -9.8597  -9.6926  -9.3354  -9.1102  -8.6682
    -8.6223  -8.5526  -8.3880  -8.3664  -8.1607  -8.1211  -8.0624  -8.0494
    -7.6882  -7.6227  -7.4935  -7.4733  -7.3552  -7.1702  -7.0668  -6.8595
    -6.6213  -6.3879  -6.1769  -6.1571  -5.9708  -5.9284  -5.7829  -5.7444
    -5.4506  -5.3965  -5.2106  -5.0400  -4.4444  -4.3460  -4.0881  -3.7665
    -3.1036  -2.2746  -2.2004  -1.9944  -1.6989  -1.6625  -1.4498  -1.4410
    -1.3354  -1.2710  -1.2215  -0.5748   0.5432   1.0039   1.0676   1.1073
     1.2239   1.2513   1.3707   1.8482   1.9041   2.1328

          k = 0.5000-0.0962 0.0000 ( 59291 PWs)   bands (ev):

   -72.9172 -72.8936 -44.5323 -44.3438 -44.3092 -44.2891 -44.2818 -44.2615
   -21.1131 -20.9194 -20.7170 -20.1584 -19.8036 -19.4677 -19.3227 -19.1686
   -19.0147 -18.7790 -18.6301 -18.5495 -18.1359 -18.1054 -17.9181 -17.7227
   -12.3461 -12.1140 -12.0418 -11.9103 -11.6934 -11.6424 -11.5541 -10.9420
   -10.8870 -10.6208 -10.5251  -9.8576  -9.6931  -9.3363  -9.1096  -8.6576
    -8.6231  -8.5502  -8.3974  -8.3924  -8.1586  -8.1018  -8.0762  -8.0366
    -7.6838  -7.6233  -7.4925  -7.4747  -7.3489  -7.1714  -7.0678  -6.8589
    -6.6218  -6.3959  -6.1951  -6.1565  -5.9556  -5.9279  -5.7821  -5.7469
    -5.4518  -5.3970  -5.1856  -5.0549  -4.4209  -4.3764  -4.0845  -3.7663
    -3.0966  -2.2735  -2.2012  -1.9960  -1.6999  -1.6635  -1.4485  -1.4413
    -1.3414  -1.2752  -1.2201  -0.6840   0.6922   1.0309   1.0944   1.1829
     1.2804   1.3431   1.5897   1.7858   1.8724   1.9197

          k =-0.3333-0.3849 0.0000 ( 59291 PWs)   bands (ev):

   -72.9172 -72.8936 -44.5323 -44.3438 -44.3092 -44.2891 -44.2818 -44.2615
   -21.1142 -20.9164 -20.7190 -20.1581 -19.8057 -19.4657 -19.3172 -19.1723
   -19.0179 -18.7769 -18.6317 -18.5488 -18.1384 -18.1022 -17.9182 -17.7229
   -12.3475 -12.1109 -12.0447 -11.9083 -11.6814 -11.6561 -11.5531 -10.9417
   -10.8872 -10.6203 -10.5255  -9.8579  -9.6932  -9.3362  -9.1107  -8.6610
    -8.6215  -8.5522  -8.3898  -8.3856  -8.1602  -8.1093  -8.0620  -8.0523
    -7.6842  -7.6215  -7.4997  -7.4679  -7.3475  -7.1715  -7.0685  -6.8669
    -6.6198  -6.3888  -6.1780  -6.1590  -5.9672  -5.9265  -5.7823  -5.7576
    -5.4516  -5.3908  -5.1867  -5.0555  -4.4244  -4.3726  -4.0840  -3.7664
    -3.0988  -2.2739  -2.2009  -1.9954  -1.6992  -1.6631  -1.4489  -1.4413
    -1.3396  -1.2737  -1.2206  -0.6507   0.6417   1.0384   1.0958   1.1455
     1.2391   1.3701   1.4380   1.8381   1.9099   1.9496

          k = 0.5000 0.0962 0.0000 ( 59291 PWs)   bands (ev):

   -72.9172 -72.8936 -44.5323 -44.3438 -44.3092 -44.2891 -44.2818 -44.2615
   -21.1131 -20.9194 -20.7170 -20.1584 -19.8036 -19.4677 -19.3227 -19.1686
   -19.0147 -18.7790 -18.6302 -18.5495 -18.1359 -18.1054 -17.9181 -17.7227
   -12.3461 -12.1140 -12.0418 -11.9104 -11.6933 -11.6424 -11.5541 -10.9420
   -10.8870 -10.6208 -10.5251  -9.8576  -9.6931  -9.3362  -9.1096  -8.6576
    -8.6231  -8.5502  -8.3974  -8.3924  -8.1586  -8.1018  -8.0761  -8.0366
    -7.6838  -7.6232  -7.4925  -7.4747  -7.3489  -7.1715  -7.0678  -6.8589
    -6.6217  -6.3959  -6.1951  -6.1564  -5.9556  -5.9278  -5.7822  -5.7469
    -5.4518  -5.3971  -5.1856  -5.0549  -4.4208  -4.3764  -4.0845  -3.7663
    -3.0966  -2.2735  -2.2012  -1.9960  -1.6999  -1.6635  -1.4485  -1.4413
    -1.3414  -1.2752  -1.2201  -0.6840   0.6922   1.0309   1.0944   1.1829
     1.2804   1.3431   1.5897   1.7858   1.8723   1.9198

          k =-0.3333 0.3849 0.0000 ( 59291 PWs)   bands (ev):

   -72.9172 -72.8936 -44.5323 -44.3438 -44.3092 -44.2891 -44.2818 -44.2615
   -21.1142 -20.9164 -20.7190 -20.1581 -19.8057 -19.4657 -19.3172 -19.1723
   -19.0179 -18.7769 -18.6317 -18.5488 -18.1384 -18.1022 -17.9182 -17.7229
   -12.3475 -12.1109 -12.0448 -11.9083 -11.6814 -11.6562 -11.5531 -10.9417
   -10.8872 -10.6203 -10.5255  -9.8579  -9.6931  -9.3362  -9.1107  -8.6610
    -8.6215  -8.5521  -8.3899  -8.3856  -8.1602  -8.1093  -8.0620  -8.0523
    -7.6842  -7.6215  -7.4997  -7.4678  -7.3475  -7.1715  -7.0685  -6.8669
    -6.6198  -6.3888  -6.1780  -6.1591  -5.9671  -5.9266  -5.7822  -5.7576
    -5.4515  -5.3908  -5.1868  -5.0555  -4.4244  -4.3726  -4.0840  -3.7664
    -3.0988  -2.2739  -2.2009  -1.9954  -1.6992  -1.6631  -1.4489  -1.4413
    -1.3396  -1.2737  -1.2206  -0.6507   0.6417   1.0384   1.0958   1.1455
     1.2391   1.3701   1.4380   1.8381   1.9099   1.9496

          k =-0.1667-0.0962 0.0000 ( 59226 PWs)   bands (ev):

   -72.9172 -72.8936 -44.5323 -44.3438 -44.3092 -44.2891 -44.2818 -44.2614
   -21.3127 -20.5354 -20.3450 -20.3377 -19.9883 -19.9797 -19.8047 -18.7285
   -18.7220 -18.3759 -18.3639 -18.3564 -18.2704 -18.2583 -18.0767 -18.0699
   -12.5084 -12.5003 -12.4075 -11.5815 -11.5753 -11.4286 -11.4170 -10.9257
   -10.9229  -9.9279  -9.9262  -9.6753  -9.3762  -9.3697  -9.2291  -9.2277
    -9.0411  -9.0396  -8.9232  -8.3222  -8.3214  -7.9018  -7.8975  -7.8807
    -7.8442  -7.7696  -7.6085  -7.5803  -7.1359  -7.0894  -6.9588  -6.8875
    -6.8844  -6.8496  -6.5302  -6.5277  -6.2568  -5.3493  -5.3167  -5.1424
    -5.0646  -4.8074  -4.7947  -4.7557  -4.6162  -4.6008  -4.3539  -4.3293
    -3.1082  -2.2745  -2.2004  -2.0016  -1.7013  -1.6629  -1.4451  -1.4400
    -1.3344  -1.2716  -1.2204  -0.5655   0.7344   0.9499   1.0014   1.1931
     1.2658   1.3346   1.5840   1.5889   1.7125   1.9613

          k =-0.0000-0.1925 0.0000 ( 59226 PWs)   bands (ev):

   -72.9172 -72.8936 -44.5323 -44.3438 -44.3092 -44.2891 -44.2818 -44.2614
   -21.3129 -20.5299 -20.3552 -20.3372 -19.9869 -19.9728 -19.8087 -18.7310
   -18.7153 -18.3998 -18.3654 -18.3519 -18.2535 -18.2528 -18.0831 -18.0692
   -12.5113 -12.4982 -12.4067 -11.5843 -11.5733 -11.4291 -11.4142 -10.9273
   -10.9230  -9.9302  -9.9242  -9.6753  -9.3770  -9.3671  -9.2305  -9.2276
    -9.0408  -9.0404  -8.9238  -8.3239  -8.3191  -7.9018  -7.8963  -7.8630
    -7.8427  -7.7715  -7.6296  -7.5932  -7.1092  -7.0891  -6.9571  -6.8902
    -6.8834  -6.8614  -6.5322  -6.5249  -6.2574  -5.3395  -5.3166  -5.1427
    -5.0643  -4.8578  -4.7862  -4.7496  -4.5939  -4.5876  -4.3568  -4.3359
    -3.1104  -2.2750  -2.2001  -2.0010  -1.7006  -1.6626  -1.4456  -1.4401
    -1.3329  -1.2702  -1.2209  -0.5208   0.6643   0.9011   0.9749   1.1677
     1.2232   1.3841   1.5717   1.6098   1.6951   1.9780

          k = 0.5000-0.8660 0.0000 ( 59292 PWs)   bands (ev):

   -72.9172 -72.8936 -44.5323 -44.3438 -44.3092 -44.2891 -44.2818 -44.2614
   -21.0486 -21.0467 -20.4694 -20.4626 -19.4276 -19.4201 -19.4134 -19.4061
   -18.9907 -18.9887 -18.3264 -18.3224 -18.3123 -18.3117 -17.7929 -17.7874
   -12.0714 -12.0664 -12.0606 -12.0601 -11.8785 -11.8718 -11.3284 -11.3270
   -10.2339 -10.2315 -10.1351 -10.1304 -10.1294 -10.1256  -8.5932  -8.5472
    -8.5460  -8.5434  -8.5417  -8.5389  -7.8636  -7.8618  -7.8593  -7.8570
    -7.8217  -7.8205  -7.7806  -7.7516  -7.4887  -7.4862  -6.6103  -6.6073
    -6.3525  -6.3290  -6.3140  -6.2922  -6.1887  -6.1869  -5.7060  -5.7002
    -5.5444  -5.5416  -4.7258  -4.7190  -4.7052  -4.6821  -3.8884  -3.8659
    -3.0964  -2.2735  -2.2012  -1.9960  -1.6994  -1.6635  -1.4484  -1.4413
    -1.3415  -1.2751  -1.2201  -0.6843   0.7048   1.0454   1.0976   1.1478
     1.4634   1.5606   1.5966   1.6145   1.6809   1.8228

          k =-1.0000 0.0000 0.0000 ( 59292 PWs)   bands (ev):

   -72.9173 -72.8936 -44.5324 -44.3438 -44.3092 -44.2891 -44.2818 -44.2614
   -21.0750 -21.0172 -20.4770 -20.4600 -19.4372 -19.4105 -19.4083 -19.4046
   -19.0138 -18.9680 -18.3746 -18.3297 -18.2910 -18.2779 -17.7983 -17.7840
   -12.1103 -12.0726 -12.0423 -12.0299 -11.8819 -11.8685 -11.3499 -11.3069
   -10.2469 -10.2348 -10.1318 -10.1312 -10.1234 -10.1201  -8.6320  -8.5768
    -8.5562  -8.5247  -8.5156  -8.4894  -7.8776  -7.8714  -7.8601  -7.8526
    -7.8145  -7.8116  -7.7884  -7.7597  -7.5141  -7.4633  -6.6126  -6.6021
    -6.3587  -6.3226  -6.2981  -6.2879  -6.2087  -6.1699  -5.7361  -5.6774
    -5.5663  -5.5199  -4.8198  -4.7126  -4.6680  -4.6359  -3.8880  -3.8677
    -3.1060  -2.2748  -2.2003  -1.9939  -1.6988  -1.6621  -1.4502  -1.4407
    -1.3330  -1.2697  -1.2218  -0.5312   0.5036   0.9209   1.0740   1.1093
     1.1545   1.4847   1.5597   1.6259   1.6394   1.9276

 ------ SPIN DOWN ----------


          k = 0.1667 0.2887 0.0000 ( 59267 PWs)   bands (ev):

   -68.7431 -68.7168 -40.5077 -40.2934 -40.1464 -40.1233 -40.0979 -40.0743
   -21.2423 -20.6554 -20.6518 -20.1023 -20.0893 -19.5822 -19.5788 -19.0946
   -18.6920 -18.6865 -18.4551 -18.4431 -18.1891 -18.0804 -18.0735 -17.8445
   -12.4813 -12.2051 -12.1966 -11.8178 -11.8149 -11.6558 -11.1880 -11.1864
   -10.3883 -10.3644 -10.1137 -10.1117  -9.5857  -9.5850  -8.8267  -8.8175
    -8.8131  -8.7627  -8.7589  -8.5932  -8.1939  -8.0287  -8.0021  -7.8269
    -7.8230  -7.4343  -7.4331  -7.2630  -7.2422  -7.2049  -7.2033  -6.9601
    -6.9493  -6.5456  -6.5259  -6.1503  -6.1495  -5.8540  -5.4146  -5.2712
    -5.2625  -5.1966  -4.8994  -4.8836  -4.4885  -4.3400  -4.3292  -3.9644
    -1.5026   0.4485   0.7344   0.9041   0.9952   1.1027   1.2493   1.2954
     1.3796   1.4864   1.5111   1.5720   1.6795   1.7157   1.8211   1.9550
     2.0648   2.1286   2.1715   2.2285   2.2873   2.3662

          k = 0.1667-0.4811 0.0000 ( 59291 PWs)   bands (ev):

   -68.7431 -68.7168 -40.5077 -40.2935 -40.1464 -40.1233 -40.0979 -40.0743
   -21.1118 -20.9076 -20.7183 -20.1561 -19.7997 -19.4617 -19.3121 -19.1700
   -19.0094 -18.7743 -18.6356 -18.5395 -18.1426 -18.0853 -17.9170 -17.7186
   -12.3454 -12.1105 -12.0415 -11.9033 -11.6777 -11.6554 -11.5495 -10.9383
   -10.8868 -10.6202 -10.5197  -9.8566  -9.6901  -9.3324  -9.1077  -8.6437
    -8.6197  -8.5494  -8.3857  -8.3538  -8.1582  -8.1040  -8.0599  -8.0469
    -7.6853  -7.6201  -7.4909  -7.4710  -7.3373  -7.1670  -7.0644  -6.8432
    -6.6180  -6.3722  -6.1601  -6.1544  -5.9554  -5.9252  -5.7802  -5.7287
    -5.4479  -5.3816  -5.1875  -5.0305  -4.4233  -4.3389  -4.0739  -3.7524
    -1.4942   0.4380   0.7159   0.9214   0.9988   1.0358   1.1443   1.2096
     1.2492   1.4108   1.5875   1.7314   1.7615   1.8205   1.8445   2.0992
     2.1531   2.1593   2.1893   2.2445   2.2860   2.3546

          k = 0.1667-0.0962 0.0000 ( 59226 PWs)   bands (ev):

   -68.7431 -68.7168 -40.5077 -40.2934 -40.1464 -40.1232 -40.0979 -40.0743
   -21.3087 -20.5309 -20.3413 -20.3342 -19.9835 -19.9760 -19.8013 -18.7235
   -18.7178 -18.3713 -18.3597 -18.3522 -18.2659 -18.2540 -18.0726 -18.0666
   -12.5057 -12.4979 -12.4050 -11.5788 -11.5731 -11.4258 -11.4146 -10.9228
   -10.9204  -9.9250  -9.9240  -9.6722  -9.3736  -9.3672  -9.2260  -9.2248
    -9.0388  -9.0370  -8.9038  -8.3190  -8.3182  -7.8989  -7.8950  -7.8584
    -7.8401  -7.7672  -7.5914  -7.5697  -7.1101  -7.0785  -6.9560  -6.8848
    -6.8822  -6.8389  -6.5275  -6.5253  -6.2541  -5.3260  -5.3040  -5.1396
    -5.0617  -4.7912  -4.7774  -4.7406  -4.6023  -4.5881  -4.3367  -4.3198
    -1.5111   0.4614   0.7466   0.8789   0.9952   1.0795   1.1457   1.3056
     1.4012   1.5176   1.5934   1.6789   1.7585   1.7750   1.8671   1.9220
     2.0447   2.0531   2.1205   2.2193   2.2497   2.3664

          k =-0.5000-0.8660 0.0000 ( 59292 PWs)   bands (ev):

   -68.7431 -68.7168 -40.5077 -40.2935 -40.1464 -40.1233 -40.0979 -40.0743
   -21.0448 -21.0424 -20.4655 -20.4589 -19.4227 -19.4160 -19.4089 -19.4028
   -18.9878 -18.9838 -18.3212 -18.3186 -18.3112 -18.3045 -17.7883 -17.7835
   -12.0677 -12.0644 -12.0593 -12.0566 -11.8760 -11.8698 -11.3255 -11.3245
   -10.2309 -10.2292 -10.1319 -10.1274 -10.1268 -10.1230  -8.5627  -8.5447
    -8.5426  -8.5417  -8.5379  -8.5307  -7.8609  -7.8592  -7.8566  -7.8546
    -7.8179  -7.8168  -7.7629  -7.7406  -7.4869  -7.4832  -6.6072  -6.6050
    -6.3266  -6.3076  -6.3015  -6.2816  -6.1865  -6.1834  -5.6897  -5.6886
    -5.5422  -5.5382  -4.7067  -4.6940  -4.6930  -4.6783  -3.8702  -3.8560
    -1.4755   0.2164   0.7315   0.9144   0.9929   1.0450   1.1907   1.3735
     1.4782   1.5241   1.5913   1.6743   1.7169   1.8419   1.8981   1.9395
     2.0150   2.0721   2.2149   2.2698   2.3118   2.3794

          k =-0.1667 0.2887 0.0000 ( 59267 PWs)   bands (ev):

   -68.7431 -68.7168 -40.5077 -40.2934 -40.1464 -40.1233 -40.0979 -40.0743
   -21.2423 -20.6554 -20.6518 -20.1023 -20.0892 -19.5822 -19.5788 -19.0946
   -18.6920 -18.6865 -18.4551 -18.4431 -18.1891 -18.0805 -18.0735 -17.8445
   -12.4812 -12.2051 -12.1966 -11.8178 -11.8149 -11.6558 -11.1880 -11.1864
   -10.3884 -10.3644 -10.1138 -10.1117  -9.5857  -9.5849  -8.8266  -8.8174
    -8.8131  -8.7628  -8.7589  -8.5932  -8.1940  -8.0287  -8.0021  -7.8269
    -7.8230  -7.4343  -7.4332  -7.2630  -7.2422  -7.2049  -7.2033  -6.9601
    -6.9493  -6.5456  -6.5259  -6.1503  -6.1495  -5.8540  -5.4147  -5.2712
    -5.2625  -5.1966  -4.8994  -4.8836  -4.4886  -4.3400  -4.3292  -3.9644
    -1.5026   0.4485   0.7344   0.9041   0.9952   1.1028   1.2492   1.2954
     1.3796   1.4864   1.5111   1.5720   1.6795   1.7156   1.8210   1.9550
     2.0648   2.1287   2.1716   2.2286   2.2872   2.3663

          k = 0.3333 0.0000 0.0000 ( 59267 PWs)   bands (ev):

   -68.7431 -68.7168 -40.5077 -40.2935 -40.1464 -40.1232 -40.0979 -40.0743
   -21.2419 -20.6804 -20.6267 -20.1035 -20.0867 -19.6076 -19.5552 -19.0965
   -18.7076 -18.6664 -18.4578 -18.4419 -18.1851 -18.1015 -18.0584 -17.8437
   -12.4804 -12.2068 -12.1952 -11.8273 -11.8079 -11.6539 -11.2061 -11.1683
   -10.3876 -10.3641 -10.1266 -10.0996  -9.5919  -9.5775  -8.8288  -8.8199
    -8.8063  -8.7846  -8.7384  -8.5939  -8.1957  -8.0713  -7.9593  -7.8259
    -7.8219  -7.4400  -7.4272  -7.2690  -7.2320  -7.2143  -7.1936  -6.9618
    -6.9490  -6.5899  -6.4869  -6.1531  -6.1459  -5.8592  -5.4146  -5.2873
    -5.2373  -5.1969  -4.9100  -4.8753  -4.4817  -4.3663  -4.3127  -3.9635
    -1.4907   0.2915   0.7511   0.9024   0.9985   1.0679   1.2167   1.4172
     1.4595   1.5043   1.5365   1.6135   1.7425   1.8109   1.8489   1.9707
     2.0279   2.0922   2.1627   2.2351   2.3122   2.4099

          k =-0.1667-0.4811 0.0000 ( 59291 PWs)   bands (ev):

   -68.7431 -68.7168 -40.5077 -40.2935 -40.1464 -40.1233 -40.0979 -40.0743
   -21.1118 -20.9076 -20.7183 -20.1561 -19.7997 -19.4617 -19.3120 -19.1700
   -19.0094 -18.7743 -18.6356 -18.5395 -18.1427 -18.0853 -17.9170 -17.7186
   -12.3455 -12.1104 -12.0415 -11.9033 -11.6777 -11.6554 -11.5496 -10.9383
   -10.8868 -10.6202 -10.5196  -9.8565  -9.6901  -9.3324  -9.1077  -8.6437
    -8.6196  -8.5494  -8.3857  -8.3538  -8.1582  -8.1040  -8.0599  -8.0470
    -7.6853  -7.6201  -7.4909  -7.4710  -7.3373  -7.1670  -7.0644  -6.8432
    -6.6181  -6.3722  -6.1601  -6.1544  -5.9554  -5.9252  -5.7801  -5.7287
    -5.4480  -5.3816  -5.1875  -5.0305  -4.4233  -4.3389  -4.0739  -3.7524
    -1.4942   0.4380   0.7159   0.9214   0.9988   1.0358   1.1443   1.2096
     1.2492   1.4108   1.5875   1.7313   1.7615   1.8206   1.8444   2.0993
     2.1530   2.1593   2.1892   2.2443   2.2863   2.3538

          k = 0.5000-0.0962 0.0000 ( 59291 PWs)   bands (ev):

   -68.7431 -68.7168 -40.5077 -40.2934 -40.1464 -40.1233 -40.0979 -40.0743
   -21.1091 -20.9150 -20.7136 -20.1545 -19.7997 -19.4634 -19.3179 -19.1652
   -19.0104 -18.7748 -18.6263 -18.5453 -18.1317 -18.1004 -17.9143 -17.7183
   -12.3438 -12.1111 -12.0397 -11.9075 -11.6901 -11.6409 -11.5515 -10.9391
   -10.8843 -10.6182 -10.5223  -9.8546  -9.6906  -9.3332  -9.1071  -8.6361
    -8.6203  -8.5474  -8.3900  -8.3756  -8.1563  -8.0902  -8.0726  -8.0353
    -7.6814  -7.6207  -7.4899  -7.4723  -7.3326  -7.1682  -7.0652  -6.8430
    -6.6184  -6.3775  -6.1736  -6.1539  -5.9448  -5.9246  -5.7794  -5.7303
    -5.4490  -5.3822  -5.1692  -5.0413  -4.4045  -4.3625  -4.0712  -3.7522
    -1.4756   0.2182   0.7267   0.9172   0.9903   1.0422   1.1433   1.2321
     1.3363   1.5661   1.6971   1.7530   1.7935   1.8537   1.9761   2.0022
     2.0963   2.1673   2.2230   2.2482   2.3114   2.3670

          k =-0.3333-0.3849 0.0000 ( 59291 PWs)   bands (ev):

   -68.7431 -68.7168 -40.5077 -40.2934 -40.1464 -40.1233 -40.0979 -40.0743
   -21.1101 -20.9124 -20.7154 -20.1543 -19.8015 -19.4617 -19.3131 -19.1683
   -19.0132 -18.7730 -18.6275 -18.5447 -18.1338 -18.0978 -17.9144 -17.7185
   -12.3449 -12.1085 -12.0423 -11.9058 -11.6791 -11.6536 -11.5506 -10.9389
   -10.8845 -10.6177 -10.5227  -9.8549  -9.6907  -9.3331  -9.1080  -8.6385
    -8.6189  -8.5490  -8.3872  -8.3677  -8.1578  -8.0956  -8.0597  -8.0494
    -7.6818  -7.6191  -7.4965  -7.4662  -7.3317  -7.1683  -7.0658  -6.8485
    -6.6166  -6.3725  -6.1614  -6.1559  -5.9529  -5.9235  -5.7796  -5.7381
    -5.4489  -5.3780  -5.1703  -5.0413  -4.4074  -4.3595  -4.0709  -3.7524
    -1.4819   0.2801   0.7212   0.9171   0.9935   1.0317   1.1802   1.2415
     1.2919   1.4618   1.6664   1.7548   1.8234   1.9000   1.9563   2.0447
     2.0619   2.0991   2.2010   2.2290   2.3206   2.3436

          k = 0.5000 0.0962 0.0000 ( 59291 PWs)   bands (ev):

   -68.7431 -68.7168 -40.5077 -40.2934 -40.1464 -40.1233 -40.0979 -40.0743
   -21.1091 -20.9150 -20.7136 -20.1545 -19.7997 -19.4634 -19.3179 -19.1652
   -19.0104 -18.7748 -18.6263 -18.5453 -18.1317 -18.1004 -17.9143 -17.7183
   -12.3438 -12.1112 -12.0396 -11.9075 -11.6901 -11.6409 -11.5515 -10.9391
   -10.8843 -10.6183 -10.5223  -9.8546  -9.6906  -9.3332  -9.1071  -8.6361
    -8.6203  -8.5474  -8.3900  -8.3756  -8.1563  -8.0902  -8.0725  -8.0352
    -7.6815  -7.6207  -7.4899  -7.4724  -7.3326  -7.1683  -7.0651  -6.8430
    -6.6183  -6.3775  -6.1736  -6.1538  -5.9448  -5.9246  -5.7795  -5.7303
    -5.4491  -5.3822  -5.1692  -5.0413  -4.4045  -4.3625  -4.0712  -3.7522
    -1.4756   0.2182   0.7267   0.9172   0.9903   1.0422   1.1433   1.2321
     1.3362   1.5661   1.6971   1.7530   1.7935   1.8538   1.9760   2.0023
     2.0962   2.1673   2.2231   2.2483   2.3112   2.3669

          k =-0.3333 0.3849 0.0000 ( 59291 PWs)   bands (ev):

   -68.7431 -68.7168 -40.5077 -40.2934 -40.1464 -40.1233 -40.0979 -40.0743
   -21.1101 -20.9124 -20.7154 -20.1543 -19.8015 -19.4617 -19.3131 -19.1683
   -19.0132 -18.7731 -18.6275 -18.5447 -18.1338 -18.0978 -17.9144 -17.7185
   -12.3449 -12.1085 -12.0423 -11.9058 -11.6791 -11.6536 -11.5505 -10.9389
   -10.8844 -10.6177 -10.5227  -9.8550  -9.6906  -9.3331  -9.1081  -8.6385
    -8.6190  -8.5490  -8.3872  -8.3677  -8.1578  -8.0956  -8.0596  -8.0494
    -7.6818  -7.6191  -7.4965  -7.4661  -7.3318  -7.1683  -7.0658  -6.8485
    -6.6166  -6.3725  -6.1614  -6.1559  -5.9529  -5.9236  -5.7796  -5.7381
    -5.4488  -5.3780  -5.1703  -5.0413  -4.4074  -4.3595  -4.0709  -3.7524
    -1.4819   0.2801   0.7212   0.9171   0.9935   1.0317   1.1802   1.2416
     1.2919   1.4618   1.6664   1.7548   1.8234   1.9000   1.9563   2.0447
     2.0622   2.0990   2.2009   2.2289   2.3207   2.3437

          k =-0.1667-0.0962 0.0000 ( 59226 PWs)   bands (ev):

   -68.7431 -68.7168 -40.5077 -40.2934 -40.1464 -40.1232 -40.0979 -40.0743
   -21.3087 -20.5309 -20.3413 -20.3342 -19.9835 -19.9760 -19.8013 -18.7235
   -18.7178 -18.3714 -18.3597 -18.3522 -18.2660 -18.2540 -18.0726 -18.0666
   -12.5057 -12.4979 -12.4050 -11.5788 -11.5731 -11.4258 -11.4146 -10.9228
   -10.9204  -9.9251  -9.9240  -9.6722  -9.3736  -9.3672  -9.2260  -9.2248
    -9.0388  -9.0370  -8.9038  -8.3191  -8.3183  -7.8989  -7.8950  -7.8584
    -7.8401  -7.7672  -7.5914  -7.5697  -7.1101  -7.0785  -6.9561  -6.8848
    -6.8822  -6.8389  -6.5274  -6.5253  -6.2542  -5.3260  -5.3040  -5.1395
    -5.0618  -4.7912  -4.7774  -4.7406  -4.6023  -4.5881  -4.3367  -4.3198
    -1.5111   0.4614   0.7466   0.8789   0.9952   1.0795   1.1457   1.3056
     1.4012   1.5177   1.5934   1.6789   1.7585   1.7750   1.8672   1.9220
     2.0449   2.0531   2.1205   2.2193   2.2497   2.3661

          k =-0.0000-0.1925 0.0000 ( 59226 PWs)   bands (ev):

   -68.7431 -68.7168 -40.5076 -40.2934 -40.1464 -40.1233 -40.0979 -40.0743
   -21.3089 -20.5261 -20.3505 -20.3333 -19.9830 -19.9694 -19.8048 -18.7264
   -18.7113 -18.3922 -18.3611 -18.3477 -18.2515 -18.2495 -18.0787 -18.0652
   -12.5076 -12.4967 -12.4043 -11.5817 -11.5711 -11.4256 -11.4125 -10.9245
   -10.9204  -9.9276  -9.9216  -9.6723  -9.3746  -9.3647  -9.2273  -9.2244
    -9.0383  -9.0380  -8.9042  -8.3208  -8.3159  -7.8993  -7.8940  -7.8480
    -7.8361  -7.7688  -7.6076  -7.5777  -7.0946  -7.0746  -6.9546  -6.8875
    -6.8810  -6.8476  -6.5296  -6.5224  -6.2547  -5.3225  -5.3003  -5.1398
    -5.0614  -4.8296  -4.7709  -4.7351  -4.5870  -4.5772  -4.3419  -4.3215
    -1.5167   0.5789   0.7349   0.8723   0.9910   1.0979   1.1542   1.2569
     1.3375   1.4884   1.5387   1.5942   1.7241   1.7918   1.9021   1.9271
     2.0362   2.0888   2.0933   2.2136   2.2677   2.3294

          k = 0.5000-0.8660 0.0000 ( 59292 PWs)   bands (ev):

   -68.7431 -68.7168 -40.5077 -40.2935 -40.1464 -40.1233 -40.0979 -40.0743
   -21.0448 -21.0423 -20.4655 -20.4589 -19.4227 -19.4160 -19.4089 -19.4027
   -18.9879 -18.9837 -18.3212 -18.3186 -18.3113 -18.3045 -17.7883 -17.7835
   -12.0678 -12.0645 -12.0594 -12.0565 -11.8760 -11.8698 -11.3255 -11.3245
   -10.2309 -10.2293 -10.1319 -10.1274 -10.1268 -10.1230  -8.5627  -8.5447
    -8.5425  -8.5418  -8.5378  -8.5308  -7.8609  -7.8592  -7.8566  -7.8546
    -7.8179  -7.8169  -7.7629  -7.7405  -7.4870  -7.4832  -6.6071  -6.6050
    -6.3266  -6.3076  -6.3015  -6.2816  -6.1865  -6.1832  -5.6897  -5.6886
    -5.5423  -5.5383  -4.7067  -4.6939  -4.6930  -4.6783  -3.8702  -3.8560
    -1.4755   0.2164   0.7315   0.9143   0.9929   1.0451   1.1907   1.3735
     1.4783   1.5241   1.5912   1.6743   1.7169   1.8419   1.8983   1.9396
     2.0149   2.0720   2.2148   2.2699   2.3118   2.3775

          k =-1.0000 0.0000 0.0000 ( 59292 PWs)   bands (ev):

   -68.7431 -68.7168 -40.5077 -40.2935 -40.1464 -40.1233 -40.0979 -40.0743
   -21.0692 -21.0152 -20.4725 -20.4563 -19.4322 -19.4065 -19.4048 -19.4012
   -19.0074 -18.9661 -18.3656 -18.3244 -18.2886 -18.2773 -17.7937 -17.7798
   -12.1043 -12.0708 -12.0409 -12.0288 -11.8796 -11.8665 -11.3463 -11.3052
   -10.2433 -10.2316 -10.1291 -10.1283 -10.1208 -10.1182  -8.6000  -8.5726
    -8.5527  -8.5233  -8.5149  -8.4852  -7.8737  -7.8683  -7.8571  -7.8503
    -7.8094  -7.8093  -7.7709  -7.7447  -7.5101  -7.4621  -6.6099  -6.5997
    -6.3363  -6.3013  -6.2873  -6.2781  -6.2044  -6.1679  -5.7162  -5.6665
    -5.5619  -5.5188  -4.7860  -4.6953  -4.6595  -4.6347  -3.8739  -3.8535
    -1.5001   0.5464   0.7197   0.9241   1.0066   1.0414   1.1508   1.2037
     1.3535   1.3679   1.6196   1.6422   1.6618   1.7534   1.7712   1.8278
     2.1080   2.1962   2.2119   2.2485   2.3082   2.3649

     the Fermi energy is    -1.1210 ev

!    total energy              =   -1133.81912347 Ry

     total all-electron energy =     -6753.494826 Ry
     estimated scf accuracy    <       0.00000002 Ry
     smearing contrib. (-TS)   =      -0.00000000 Ry
     internal energy E=F+TS    =   -1133.81912347 Ry

     The total energy is F=E-TS. E is the sum of the following terms:
     one-electron contribution =   -3964.23008059 Ry
     hartree contribution      =    2010.28081317 Ry
     xc contribution           =    -186.04183190 Ry
     ewald contribution        =    1365.54459129 Ry
     DFT-D3 Dispersion         =      -0.12552581 Ry
     one-center paw contrib.   =    -359.24708963 Ry

     total magnetization       =    10.00 Bohr mag/cell
     absolute magnetization    =    10.01 Bohr mag/cell

     convergence has been achieved in  14 iterations

     Writing output data file ./mytmp/Crdimer0.13-0.4.save/
 
     init_run     :     18.84s CPU     20.34s WALL (       1 calls)
     electrons    :    523.30s CPU    570.49s WALL (       1 calls)

     Called by init_run:
     wfcinit      :     13.89s CPU     14.74s WALL (       1 calls)
     potinit      :      1.47s CPU      1.61s WALL (       1 calls)
     hinit0       :      1.51s CPU      1.62s WALL (       1 calls)

     Called by electrons:
     c_bands      :    409.26s CPU    436.31s WALL (      14 calls)
     sum_band     :     81.22s CPU     92.63s WALL (      14 calls)
     v_of_rho     :      7.51s CPU      8.36s WALL (      15 calls)
     newd         :     17.93s CPU     25.38s WALL (      15 calls)
     PAW_pot      :      6.83s CPU      7.49s WALL (      15 calls)
     mix_rho      :      1.02s CPU      1.06s WALL (      14 calls)

     Called by c_bands:
     init_us_2    :      5.01s CPU      5.06s WALL (     870 calls)
     cegterg      :    396.91s CPU    423.86s WALL (     420 calls)

     Called by *egterg:
     cdiaghg      :     24.95s CPU     39.71s WALL (    2712 calls)
     h_psi        :    242.74s CPU    252.59s WALL (    2742 calls)
     s_psi        :     27.32s CPU     27.40s WALL (    2742 calls)
     g_psi        :      0.67s CPU      0.69s WALL (    2292 calls)

     Called by h_psi:
     h_psi:calbec :     29.10s CPU     29.99s WALL (    2742 calls)
     vloc_psi     :    183.96s CPU    192.76s WALL (    2742 calls)
     add_vuspsi   :     27.47s CPU     27.59s WALL (    2742 calls)

     General routines
     calbec       :     38.91s CPU     40.00s WALL (    3162 calls)
     fft          :      9.75s CPU     14.40s WALL (     369 calls)
     ffts         :      0.11s CPU      0.12s WALL (      58 calls)
     fftw         :    189.64s CPU    198.56s WALL (  248994 calls)
     interpolate  :      0.41s CPU      0.43s WALL (      30 calls)
 
     Parallel routines
     fft_scatt_xy :     30.59s CPU     31.78s WALL (  249421 calls)
     fft_scatt_yz :     80.19s CPU     89.09s WALL (  249421 calls)
 
     PWSCF        :   9m 4.18s CPU   9m55.67s WALL

 
   This run was terminated on:  13:44:22  31Mar2021            

=------------------------------------------------------------------------------=
   JOB DONE.
=------------------------------------------------------------------------------=
