
     Program PWSCF v.6.7MaX starts on 31Mar2021 at 13: 4:13 

     This program is part of the open-source Quantum ESPRESSO suite
     for quantum simulation of materials; please cite
         "P. Giannozzi et al., J. Phys.:Condens. Matter 21 395502 (2009);
         "P. Giannozzi et al., J. Phys.:Condens. Matter 29 465901 (2017);
          URL http://www.quantum-espresso.org", 
     in publications or presentations arising from this work. More details at
     http://www.quantum-espresso.org/quote

     Parallel version (MPI), running on    48 processors

     MPI processes distributed on     1 nodes
     R & G space division:  proc/nbgrp/npool/nimage =      48
     Reading input from Crdimer0.13-0.1.scf.in

     Current dimensions of program PWSCF are:
     Max number of different atomic species (ntypx) = 10
     Max number of k-points (npk) =  40000
     Max angular momentum in pseudopotentials (lmaxx) =  3
     file N.pbe-n-kjpaw_psl.1.0.0.UPF: wavefunction(s)  2S renormalized
     file Cr.pbe-spn-kjpaw_psl.1.0.0.UPF: wavefunction(s)  3S 3P 3D renormalized
     file Cr.pbe-spn-kjpaw_psl.1.0.0.UPF: wavefunction(s)  3S 3P 3D renormalized

     --------------------------------------------
     Parameters for DFT-D3 Dispersion Correction:
     --------------------------------------------
       Reference C6 values for interpolation: 

         atom   Coordination number   C6
         B          0.000           214.36
         B          0.971           150.74
         B          1.944           106.23
         B          2.913            62.89
         B          4.586            56.06
         N          0.000            50.54
         N          0.994            44.25
         N          2.014            39.35
         N          2.990            31.16
         Cr1        0.000          1381.48
         Cr1        1.827           571.38
         Cr1       10.619           306.69
         Cr2        0.000          1381.48
         Cr2        1.827           571.38
         Cr2       10.619           306.69

       Values used:

         atom   Coordination number  R0_AB[au]  C6      C8
         B          3.337            3.039     62.89   2505.97
         B          3.335            3.039     62.89   2506.00
         B          3.359            3.039     62.88   2505.37
         B          3.336            3.039     62.89   2506.00
         B          3.354            3.039     62.88   2505.51
         B          3.336            3.039     62.89   2505.98
         N          3.134            2.478     31.22    688.70
         N          3.134            2.478     31.22    688.70
         N          3.168            2.478     31.21    688.42
         N          3.136            2.478     31.22    688.68
         N          3.138            2.478     31.22    688.66
         N          3.134            2.478     31.22    688.70
         N          3.136            2.478     31.22    688.68
         N          3.134            2.478     31.22    688.70
         N          3.137            2.478     31.22    688.67
         B          3.336            3.039     62.89   2506.00
         B          3.335            3.039     62.89   2506.00
         B          3.336            3.039     62.89   2505.98
         B          3.354            3.039     62.88   2505.51
         B          3.337            3.039     62.89   2505.97
         B          3.336            3.039     62.89   2506.00
         N          3.136            2.478     31.22    688.68
         B          3.335            3.039     62.89   2506.01
         B          3.336            3.039     62.89   2505.99
         B          3.349            3.039     62.88   2505.65
         N          3.134            2.478     31.22    688.70
         N          3.134            2.478     31.22    688.70
         N          3.136            2.478     31.22    688.68
         N          3.136            2.478     31.22    688.68
         N          3.168            2.478     31.21    688.42
         N          3.136            2.478     31.22    688.68
         B          3.349            3.039     62.88   2505.65
         Cr1        0.982            3.252    742.57  68530.73
         Cr2        0.982            3.252    742.57  68530.73

         Molecular C6 ( Ry / a.u.^6 ) =     70960.21


     Subspace diagonalization in iterative solution of the eigenvalue problem:
     one sub-group per band group will be used
     scalapack distributed-memory algorithm (size of sub-group:  6*  6 procs)

 
     Parallelization info
     --------------------
     sticks:   dense  smooth     PW     G-vecs:    dense   smooth      PW
     Min         235      98     26                36277     9874    1408
     Max         236      99     27                36282     9883    1425
     Sum       11311    4741   1285              1741401   474235   68095
 


     bravais-lattice index     =            4
     lattice parameter (alat)  =      18.9275  a.u.
     unit-cell volume          =   10553.3021 (a.u.)^3
     number of atoms/cell      =           34
     number of atomic types    =            4
     number of electrons       =       156.00
     number of Kohn-Sham states=           94
     kinetic-energy cutoff     =      48.0000  Ry
     charge density cutoff     =     457.0000  Ry
     scf convergence threshold =      1.0E-07
     mixing beta               =       0.5000
     number of iterations used =            8  plain     mixing
     Exchange-correlation= SLA  PW   PBX  PBC
                           (   1   4   3   4   0   0   0)

     celldm(1)=  18.927497  celldm(2)=   0.000000  celldm(3)=   1.797125
     celldm(4)=   0.000000  celldm(5)=   0.000000  celldm(6)=   0.000000

     crystal axes: (cart. coord. in units of alat)
               a(1) = (   1.000000   0.000000   0.000000 )  
               a(2) = (  -0.500000   0.866025   0.000000 )  
               a(3) = (   0.000000   0.000000   1.797125 )  

     reciprocal axes: (cart. coord. in units 2 pi/alat)
               b(1) = (  1.000000  0.577350  0.000000 )  
               b(2) = (  0.000000  1.154701  0.000000 )  
               b(3) = (  0.000000  0.000000  0.556444 )  


     PseudoPot. # 1 for B  read from file:
     /home/sf05/q-e-qe-6.7MaX-Release/pseudo/B.pbe-n-kjpaw_psl.1.0.0.UPF
     MD5 check sum: d9c678ba5d3b2fd7b74e61139c9288d8
     Pseudo is Projector augmented-wave + core cor, Zval =  3.0
     Generated using "atomic" code by A. Dal Corso  v.5.1.2
     Shape of augmentation charge: PSQ
     Using radial grid of 1059 points,  4 beta functions with: 
                l(1) =   0
                l(2) =   0
                l(3) =   1
                l(4) =   1
     Q(r) pseudized with 0 coefficients 


     PseudoPot. # 2 for N  read from file:
     /home/sf05/q-e-qe-6.7MaX-Release/pseudo/N.pbe-n-kjpaw_psl.1.0.0.UPF
     MD5 check sum: e0e4e94a9c4025c5b51bd7d8793849bd
     Pseudo is Projector augmented-wave + core cor, Zval =  5.0
     Generated using "atomic" code by A. Dal Corso  v.5.1.2
     Shape of augmentation charge: PSQ
     Using radial grid of 1085 points,  4 beta functions with: 
                l(1) =   0
                l(2) =   0
                l(3) =   1
                l(4) =   1
     Q(r) pseudized with 0 coefficients 


     PseudoPot. # 3 for Cr read from file:
     /home/sf05/q-e-qe-6.7MaX-Release/pseudo/Cr.pbe-spn-kjpaw_psl.1.0.0.UPF
     MD5 check sum: 198f1a2427a48552563eee314eba32ba
     Pseudo is Projector augmented-wave + core cor, Zval = 14.0
     Generated using &quot;atomic&quot; code by A. Dal Corso  v.6.3
     Shape of augmentation charge: PSQ
     Using radial grid of 1183 points,  6 beta functions with: 
                l(1) =   0
                l(2) =   0
                l(3) =   1
                l(4) =   1
                l(5) =   2
                l(6) =   2
     Q(r) pseudized with 0 coefficients 


     PseudoPot. # 4 for Cr read from file:
     /home/sf05/q-e-qe-6.7MaX-Release/pseudo/Cr.pbe-spn-kjpaw_psl.1.0.0.UPF
     MD5 check sum: 198f1a2427a48552563eee314eba32ba
     Pseudo is Projector augmented-wave + core cor, Zval = 14.0
     Generated using &quot;atomic&quot; code by A. Dal Corso  v.6.3
     Shape of augmentation charge: PSQ
     Using radial grid of 1183 points,  6 beta functions with: 
                l(1) =   0
                l(2) =   0
                l(3) =   1
                l(4) =   1
                l(5) =   2
                l(6) =   2
     Q(r) pseudized with 0 coefficients 


     atomic species   valence    mass     pseudopotential
        B              3.00    10.81100     B ( 1.00)
        N              5.00    14.00674     N ( 1.00)
        Cr1           14.00    51.99610     Cr( 1.00)
        Cr2           14.00    51.99610     Cr( 1.00)

     Starting magnetic structure 
     atomic species   magnetization
        B            0.000
        N            0.000
        Cr1          1.000
        Cr2          1.000

     No symmetry found



   Cartesian axes

     site n.     atom                  positions (alat units)
         1           B   tau(   1) = (  -0.1250000   0.2165064   0.8985623  )
         2           B   tau(   2) = (   0.3750000   0.6495191   0.8985623  )
         3           B   tau(   3) = (   0.2500000   0.0000000   0.8985623  )
         4           B   tau(   4) = (   0.7500000   0.0000000   0.8985623  )
         5           B   tau(   5) = (   0.1250000   0.2165064   0.8985623  )
         6           B   tau(   6) = (  -0.3750000   0.6495191   0.8985623  )
         7           N   tau(   7) = (   0.7500005   0.2886748   0.8985623  )
         8           N   tau(   8) = (   0.3750005   0.5051812   0.8985623  )
         9           N   tau(   9) = (   0.3750005   0.0721685   0.8985623  )
        10           N   tau(  10) = (   0.6250005   0.0721685   0.8985623  )
        11           N   tau(  11) = (   0.2500005   0.2886748   0.8985623  )
        12           N   tau(  12) = (   0.6250005   0.5051812   0.8985623  )
        13           N   tau(  13) = (   0.0000005   0.2886748   0.8985623  )
        14           N   tau(  14) = (   0.2500005   0.7216875   0.8985623  )
        15           N   tau(  15) = (  -0.2499995   0.7216875   0.8985623  )
        16           B   tau(  16) = (   0.0000000   0.4330127   0.8985623  )
        17           B   tau(  17) = (   0.1250000   0.6495191   0.8985623  )
        18           B   tau(  18) = (  -0.1250000   0.6495191   0.8985623  )
        19           B   tau(  19) = (   0.3750000   0.2165064   0.8985623  )
        20           B   tau(  20) = (   0.6250000   0.2165064   0.8985623  )
        21           B   tau(  21) = (   0.5000000   0.4330127   0.8985623  )
        22           N   tau(  22) = (   0.5000005   0.2886748   0.8985623  )
        23           B   tau(  23) = (  -0.2500000   0.4330127   0.8985623  )
        24           B   tau(  24) = (   0.2500000   0.4330127   0.8985623  )
        25           B   tau(  25) = (   0.5000000   0.0000000   0.8985623  )
        26           N   tau(  26) = (  -0.1249995   0.5051812   0.8985623  )
        27           N   tau(  27) = (   0.1250005   0.5051812   0.8985623  )
        28           N   tau(  28) = (   0.0000005   0.7216875   0.8985623  )
        29           N   tau(  29) = (   0.5000005   0.7216875   0.8985623  )
        30           N   tau(  30) = (   0.1250005   0.0721685   0.8985623  )
        31           N   tau(  31) = (   0.8750005   0.0721685   0.8985623  )
        32           B   tau(  32) = (   0.0000000   0.0000000   0.8985623  )
        33           Cr1 tau(  33) = (   0.3800000   0.0866025   1.2040735  )
        34           Cr2 tau(  34) = (   0.1200000   0.0866025   1.2040735  )

     number of k points=    15  Gaussian smearing, width (Ry)=  0.0000
                       cart. coord. in units 2pi/alat
        k(    1) = (   0.1666667   0.2886751   0.0000000), wk =   0.0740741
        k(    2) = (   0.1666667  -0.4811252   0.0000000), wk =   0.0740741
        k(    3) = (   0.1666667  -0.0962250   0.0000000), wk =   0.0740741
        k(    4) = (  -0.5000000  -0.8660254   0.0000000), wk =   0.0370370
        k(    5) = (  -0.1666667   0.2886751   0.0000000), wk =   0.0740741
        k(    6) = (   0.3333333   0.0000000   0.0000000), wk =   0.0740741
        k(    7) = (  -0.1666667  -0.4811252   0.0000000), wk =   0.0740741
        k(    8) = (   0.5000000  -0.0962250   0.0000000), wk =   0.0740741
        k(    9) = (  -0.3333333  -0.3849002   0.0000000), wk =   0.0740741
        k(   10) = (   0.5000000   0.0962250   0.0000000), wk =   0.0740741
        k(   11) = (  -0.3333333   0.3849002   0.0000000), wk =   0.0740741
        k(   12) = (  -0.1666667  -0.0962250   0.0000000), wk =   0.0740741
        k(   13) = (  -0.0000000  -0.1924501   0.0000000), wk =   0.0740741
        k(   14) = (   0.5000000  -0.8660254   0.0000000), wk =   0.0370370
        k(   15) = (  -1.0000000   0.0000000   0.0000000), wk =   0.0370370

     Dense  grid:  1741401 G-vectors     FFT dimensions: ( 135, 135, 240)

     Smooth grid:   474235 G-vectors     FFT dimensions: (  90,  90, 160)

     Estimated max dynamical RAM per process >     218.62 MB

     Estimated total dynamical RAM >      10.25 GB
     Generating pointlists ...
     new r_m :   0.0595 (alat units)  1.1269 (a.u.) for type    1
     new r_m :   0.0595 (alat units)  1.1269 (a.u.) for type    2
     new r_m :   0.1072 (alat units)  2.0300 (a.u.) for type    3
     new r_m :   0.1072 (alat units)  2.0300 (a.u.) for type    4

     Initial potential from superposition of free atoms

     starting charge  155.99382, renormalised to  156.00000

     negative rho (up, down):  6.746E-03 4.655E-04
     Starting wfcs are  148 randomized atomic wfcs
     Checking if some PAW data can be deallocated... 

     total cpu time spent up to now is       20.6 secs

     Self-consistent Calculation

     iteration #  1     ecut=    48.00 Ry     beta= 0.50
     Davidson diagonalization with overlap
     ethr =  1.00E-02,  avg # of iterations =  2.8

     negative rho (up, down):  4.950E-03 2.899E-03

     total cpu time spent up to now is       63.7 secs

     total energy              =   -1130.72170322 Ry
     estimated scf accuracy    <      11.34410994 Ry

     total magnetization       =    12.00 Bohr mag/cell
     absolute magnetization    =    12.15 Bohr mag/cell

     iteration #  2     ecut=    48.00 Ry     beta= 0.50
     Davidson diagonalization with overlap
     ethr =  7.27E-03,  avg # of iterations =  2.8

     negative rho (up, down):  1.155E-02 1.079E-02

     total cpu time spent up to now is      104.2 secs

     total energy              =   -1132.34428352 Ry
     estimated scf accuracy    <       5.10447903 Ry

     total magnetization       =     8.74 Bohr mag/cell
     absolute magnetization    =     9.39 Bohr mag/cell

     iteration #  3     ecut=    48.00 Ry     beta= 0.50
     Davidson diagonalization with overlap
     ethr =  3.27E-03,  avg # of iterations =  7.2

     negative rho (up, down):  8.107E-03 8.348E-03

     total cpu time spent up to now is      149.5 secs

     total energy              =   -1133.47524454 Ry
     estimated scf accuracy    <       1.55896161 Ry

     total magnetization       =    10.00 Bohr mag/cell
     absolute magnetization    =    10.21 Bohr mag/cell

     iteration #  4     ecut=    48.00 Ry     beta= 0.50
     Davidson diagonalization with overlap
     ethr =  9.99E-04,  avg # of iterations =  4.8

     negative rho (up, down):  6.729E-03 5.521E-03

     total cpu time spent up to now is      186.4 secs

     total energy              =   -1133.79566961 Ry
     estimated scf accuracy    <       0.23896245 Ry

     total magnetization       =    10.00 Bohr mag/cell
     absolute magnetization    =    10.09 Bohr mag/cell

     iteration #  5     ecut=    48.00 Ry     beta= 0.50
     Davidson diagonalization with overlap
     ethr =  1.53E-04,  avg # of iterations = 10.5

     negative rho (up, down):  4.099E-03 4.345E-03

     total cpu time spent up to now is      231.4 secs

     total energy              =   -1133.79074315 Ry
     estimated scf accuracy    <       0.14825730 Ry

     total magnetization       =    10.00 Bohr mag/cell
     absolute magnetization    =    10.03 Bohr mag/cell

     iteration #  6     ecut=    48.00 Ry     beta= 0.50
     Davidson diagonalization with overlap
     ethr =  9.50E-05,  avg # of iterations =  5.7

     negative rho (up, down):  3.584E-03 3.972E-03

     total cpu time spent up to now is      273.0 secs

     total energy              =   -1133.80456906 Ry
     estimated scf accuracy    <       0.08834309 Ry

     total magnetization       =    10.00 Bohr mag/cell
     absolute magnetization    =    10.03 Bohr mag/cell

     iteration #  7     ecut=    48.00 Ry     beta= 0.50
     Davidson diagonalization with overlap
     ethr =  5.66E-05,  avg # of iterations =  5.7

     negative rho (up, down):  3.315E-03 3.820E-03

     total cpu time spent up to now is      313.0 secs

     total energy              =   -1133.81512116 Ry
     estimated scf accuracy    <       0.01542914 Ry

     total magnetization       =    10.00 Bohr mag/cell
     absolute magnetization    =    10.03 Bohr mag/cell

     iteration #  8     ecut=    48.00 Ry     beta= 0.50
     Davidson diagonalization with overlap
     ethr =  9.89E-06,  avg # of iterations =  6.4

     negative rho (up, down):  3.197E-03 3.833E-03

     total cpu time spent up to now is      351.4 secs

     total energy              =   -1133.81724129 Ry
     estimated scf accuracy    <       0.00052766 Ry

     total magnetization       =    10.00 Bohr mag/cell
     absolute magnetization    =    10.02 Bohr mag/cell

     iteration #  9     ecut=    48.00 Ry     beta= 0.50
     Davidson diagonalization with overlap
     c_bands:  1 eigenvalues not converged
     c_bands:  1 eigenvalues not converged
     c_bands:  1 eigenvalues not converged
     c_bands:  1 eigenvalues not converged
     ethr =  3.38E-07,  avg # of iterations = 10.2

     negative rho (up, down):  3.158E-03 3.841E-03

     total cpu time spent up to now is      403.5 secs

     total energy              =   -1133.81743523 Ry
     estimated scf accuracy    <       0.00011170 Ry

     total magnetization       =    10.00 Bohr mag/cell
     absolute magnetization    =    10.01 Bohr mag/cell

     iteration # 10     ecut=    48.00 Ry     beta= 0.50
     Davidson diagonalization with overlap
     ethr =  7.16E-08,  avg # of iterations =  2.4

     negative rho (up, down):  3.144E-03 3.853E-03

     total cpu time spent up to now is      438.7 secs

     total energy              =   -1133.81746825 Ry
     estimated scf accuracy    <       0.00002405 Ry

     total magnetization       =    10.00 Bohr mag/cell
     absolute magnetization    =    10.01 Bohr mag/cell

     iteration # 11     ecut=    48.00 Ry     beta= 0.50
     Davidson diagonalization with overlap
     ethr =  1.54E-08,  avg # of iterations =  3.7

     negative rho (up, down):  3.137E-03 3.862E-03

     total cpu time spent up to now is      480.0 secs

     total energy              =   -1133.81748130 Ry
     estimated scf accuracy    <       0.00000782 Ry

     total magnetization       =    10.00 Bohr mag/cell
     absolute magnetization    =    10.01 Bohr mag/cell

     iteration # 12     ecut=    48.00 Ry     beta= 0.50
     Davidson diagonalization with overlap
     ethr =  5.01E-09,  avg # of iterations =  3.3

     negative rho (up, down):  3.135E-03 3.868E-03

     total cpu time spent up to now is      515.4 secs

     total energy              =   -1133.81748549 Ry
     estimated scf accuracy    <       0.00000132 Ry

     total magnetization       =    10.00 Bohr mag/cell
     absolute magnetization    =    10.01 Bohr mag/cell

     iteration # 13     ecut=    48.00 Ry     beta= 0.50
     Davidson diagonalization with overlap
     ethr =  8.45E-10,  avg # of iterations =  4.5

     negative rho (up, down):  3.133E-03 3.871E-03

     total cpu time spent up to now is      554.2 secs

     total energy              =   -1133.81748698 Ry
     estimated scf accuracy    <       0.00000030 Ry

     total magnetization       =    10.00 Bohr mag/cell
     absolute magnetization    =    10.01 Bohr mag/cell

     iteration # 14     ecut=    48.00 Ry     beta= 0.50
     Davidson diagonalization with overlap
     ethr =  1.92E-10,  avg # of iterations =  3.8

     negative rho (up, down):  3.133E-03 3.873E-03

     total cpu time spent up to now is      591.9 secs

     total energy              =   -1133.81748739 Ry
     estimated scf accuracy    <       0.00000015 Ry

     total magnetization       =    10.00 Bohr mag/cell
     absolute magnetization    =    10.01 Bohr mag/cell

     iteration # 15     ecut=    48.00 Ry     beta= 0.50
     Davidson diagonalization with overlap
     ethr =  9.87E-11,  avg # of iterations =  4.2

     negative rho (up, down):  3.132E-03 3.874E-03
 
     Magnetic moment per site:
     atom:    1    charge:    0.8807    magn:    0.0001    constr:    0.0000
     atom:    2    charge:    0.8804    magn:    0.0001    constr:    0.0000
     atom:    3    charge:    0.8793    magn:    0.0004    constr:    0.0000
     atom:    4    charge:    0.8806    magn:    0.0002    constr:    0.0000
     atom:    5    charge:    0.8801    magn:    0.0004    constr:    0.0000
     atom:    6    charge:    0.8801    magn:    0.0002    constr:    0.0000
     atom:    7    charge:    2.8611    magn:    0.0000    constr:    0.0000
     atom:    8    charge:    2.8609    magn:    0.0003    constr:    0.0000
     atom:    9    charge:    2.8613    magn:    0.0083    constr:    0.0000
     atom:   10    charge:    2.8609    magn:    0.0011    constr:    0.0000
     atom:   11    charge:    2.8605    magn:    0.0035    constr:    0.0000
     atom:   12    charge:    2.8610    magn:    0.0001    constr:    0.0000
     atom:   13    charge:    2.8599    magn:    0.0021    constr:    0.0000
     atom:   14    charge:    2.8599    magn:    0.0003    constr:    0.0000
     atom:   15    charge:    2.8596    magn:    0.0022    constr:    0.0000
     atom:   16    charge:    0.8800    magn:    0.0002    constr:    0.0000
     atom:   17    charge:    0.8801    magn:    0.0001    constr:    0.0000
     atom:   18    charge:    0.8798    magn:    0.0002    constr:    0.0000
     atom:   19    charge:    0.8796    magn:    0.0004    constr:    0.0000
     atom:   20    charge:    0.8801    magn:    0.0001    constr:    0.0000
     atom:   21    charge:    0.8797    magn:    0.0002    constr:    0.0000
     atom:   22    charge:    2.8611    magn:    0.0021    constr:    0.0000
     atom:   23    charge:    0.8799    magn:    0.0001    constr:    0.0000
     atom:   24    charge:    0.8797    magn:    0.0002    constr:    0.0000
     atom:   25    charge:    0.8804    magn:    0.0003    constr:    0.0000
     atom:   26    charge:    2.8598    magn:    0.0001    constr:    0.0000
     atom:   27    charge:    2.8598    magn:    0.0003    constr:    0.0000
     atom:   28    charge:    2.8596    magn:    0.0016    constr:    0.0000
     atom:   29    charge:    2.8594    magn:    0.0016    constr:    0.0000
     atom:   30    charge:    2.8599    magn:    0.0083    constr:    0.0000
     atom:   31    charge:    2.8596    magn:    0.0011    constr:    0.0000
     atom:   32    charge:    0.8807    magn:    0.0003    constr:    0.0000
     atom:   33    charge:   12.2612    magn:    4.0517    constr:    0.0000
     atom:   34    charge:   12.2613    magn:    4.0517    constr:    0.0000

     total cpu time spent up to now is      629.2 secs

     End of self-consistent calculation

 ------ SPIN UP ------------


          k = 0.1667 0.2887 0.0000 ( 59267 PWs)   bands (ev):

   -72.9117 -72.8881 -44.5265 -44.3377 -44.3108 -44.2908 -44.2699 -44.2497
   -21.2530 -20.6681 -20.6600 -20.1087 -20.1041 -19.5939 -19.5877 -19.1052
   -18.7065 -18.6956 -18.4608 -18.4585 -18.2011 -18.0909 -18.0822 -17.8551
   -12.4899 -12.2104 -12.2086 -11.8259 -11.8230 -11.6640 -11.1983 -11.1934
   -10.3972 -10.3735 -10.1238 -10.1193  -9.5953  -9.5930  -8.8446  -8.8310
    -8.8294  -8.7720  -8.7669  -8.6017  -8.2024  -8.0668  -8.0139  -7.8352
    -7.8326  -7.4449  -7.4418  -7.2855  -7.2690  -7.2142  -7.2116  -6.9640
    -6.9627  -6.5793  -6.5364  -6.1598  -6.1582  -5.8786  -5.4240  -5.3128
    -5.2753  -5.2057  -4.9150  -4.9095  -4.5148  -4.3618  -4.3423  -3.9852
    -3.1136  -2.2663  -2.2546  -1.9889  -1.7137  -1.6227  -1.4582  -1.4353
    -1.2741  -1.2663  -1.1853  -0.5881   0.5976   0.8805   1.0641   1.2057
     1.2896   1.4652   1.5240   1.5773   1.6215   1.7891

          k = 0.1667-0.4811 0.0000 ( 59291 PWs)   bands (ev):

   -72.9117 -72.8881 -44.5265 -44.3377 -44.3108 -44.2908 -44.2699 -44.2497
   -21.1233 -20.9169 -20.7289 -20.1670 -19.8103 -19.4719 -19.3233 -19.1806
   -19.0197 -18.7837 -18.6505 -18.5481 -18.1565 -18.0924 -17.9276 -17.7295
   -12.3543 -12.1192 -12.0497 -11.9111 -11.6859 -11.6640 -11.5578 -10.9472
   -10.8960 -10.6293 -10.5277  -9.8662  -9.6987  -9.3415  -9.1165  -8.6782
    -8.6288  -8.5588  -8.3940  -8.3726  -8.1669  -8.1278  -8.0687  -8.0552
    -7.6953  -7.6288  -7.5000  -7.4791  -7.3635  -7.1760  -7.0731  -6.8680
    -6.6278  -6.3946  -6.1876  -6.1635  -5.9773  -5.9347  -5.7893  -5.7510
    -5.4566  -5.4010  -5.2232  -5.0441  -4.4549  -4.3486  -4.0947  -3.7736
    -3.1116  -2.2669  -2.2542  -1.9854  -1.7126  -1.6225  -1.4602  -1.4365
    -1.2742  -1.2667  -1.1858  -0.5915   0.5189   0.8981   1.0802   1.1095
     1.2103   1.2707   1.4089   1.8388   1.9202   2.1148

          k = 0.1667-0.0962 0.0000 ( 59226 PWs)   bands (ev):

   -72.9117 -72.8881 -44.5265 -44.3377 -44.3108 -44.2908 -44.2699 -44.2497
   -21.3193 -20.5425 -20.3543 -20.3407 -19.9990 -19.9825 -19.8106 -18.7410
   -18.7239 -18.3830 -18.3753 -18.3586 -18.2714 -18.2696 -18.0845 -18.0738
   -12.5112 -12.5095 -12.4133 -11.5890 -11.5794 -11.4295 -11.4282 -10.9324
   -10.9280  -9.9365  -9.9301  -9.6814  -9.3806  -9.3779  -9.2359  -9.2325
    -9.0477  -9.0456  -8.9316  -8.3305  -8.3254  -7.9076  -7.9051  -7.8907
    -7.8505  -7.7758  -7.6202  -7.5816  -7.1508  -7.0899  -6.9652  -6.8950
    -6.8894  -6.8549  -6.5385  -6.5320  -6.2630  -5.3716  -5.3143  -5.1488
    -5.0709  -4.8246  -4.8080  -4.7512  -4.6173  -4.6107  -4.3614  -4.3310
    -3.1157  -2.2658  -2.2550  -1.9923  -1.7159  -1.6229  -1.4564  -1.4340
    -1.2738  -1.2662  -1.1848  -0.5843   0.6831   0.8485   1.0248   1.2149
     1.2846   1.3506   1.5787   1.5904   1.7338   1.9503

          k =-0.5000-0.8660 0.0000 ( 59292 PWs)   bands (ev):

   -72.9117 -72.8881 -44.5265 -44.3377 -44.3108 -44.2908 -44.2698 -44.2497
   -21.0583 -21.0504 -20.4791 -20.4654 -19.4364 -19.4311 -19.4145 -19.4123
   -18.9994 -18.9930 -18.3307 -18.3276 -18.3205 -18.3199 -17.8026 -17.7903
   -12.0755 -12.0731 -12.0674 -12.0667 -11.8867 -11.8753 -11.3359 -11.3312
   -10.2436 -10.2345 -10.1417 -10.1399 -10.1316 -10.1309  -8.6066  -8.5556
    -8.5523  -8.5487  -8.5475  -8.5419  -7.8726  -7.8713  -7.8619  -7.8614
    -7.8300  -7.8232  -7.7944  -7.7522  -7.4953  -7.4919  -6.6205  -6.6102
    -6.3743  -6.3517  -6.2999  -6.2950  -6.1956  -6.1925  -5.7221  -5.6979
    -5.5516  -5.5470  -4.7385  -4.7365  -4.6972  -4.6885  -3.9008  -3.8658
    -3.1042  -2.2658  -2.2528  -1.9860  -1.7137  -1.6223  -1.4581  -1.4380
    -1.2778  -1.2731  -1.1906  -0.7048   0.6654   1.0262   1.1122   1.1560
     1.3548   1.5640   1.5869   1.6214   1.7527   1.8035

          k =-0.1667 0.2887 0.0000 ( 59267 PWs)   bands (ev):

   -72.9117 -72.8881 -44.5265 -44.3377 -44.3108 -44.2908 -44.2699 -44.2497
   -21.2530 -20.6681 -20.6600 -20.1087 -20.1041 -19.5939 -19.5877 -19.1052
   -18.7064 -18.6956 -18.4608 -18.4585 -18.2011 -18.0909 -18.0822 -17.8551
   -12.4898 -12.2104 -12.2086 -11.8259 -11.8231 -11.6640 -11.1983 -11.1934
   -10.3972 -10.3734 -10.1238 -10.1193  -9.5953  -9.5931  -8.8446  -8.8310
    -8.8293  -8.7721  -8.7669  -8.6017  -8.2024  -8.0668  -8.0139  -7.8352
    -7.8326  -7.4450  -7.4417  -7.2855  -7.2690  -7.2141  -7.2116  -6.9640
    -6.9627  -6.5793  -6.5364  -6.1597  -6.1581  -5.8786  -5.4241  -5.3128
    -5.2753  -5.2056  -4.9150  -4.9095  -4.5148  -4.3618  -4.3423  -3.9852
    -3.1136  -2.2663  -2.2546  -1.9889  -1.7137  -1.6227  -1.4582  -1.4353
    -1.2741  -1.2663  -1.1853  -0.5881   0.5976   0.8805   1.0641   1.2058
     1.2896   1.4652   1.5239   1.5773   1.6215   1.7891

          k = 0.3333 0.0000 0.0000 ( 59267 PWs)   bands (ev):

   -72.9117 -72.8881 -44.5265 -44.3377 -44.3108 -44.2908 -44.2699 -44.2497
   -21.2525 -20.6949 -20.6330 -20.1182 -20.0924 -19.6227 -19.5615 -19.1081
   -18.7228 -18.6724 -18.4737 -18.4475 -18.1962 -18.1171 -18.0645 -17.8539
   -12.4886 -12.2187 -12.2009 -11.8367 -11.8155 -11.6615 -11.2168 -11.1751
   -10.3969 -10.3724 -10.1380 -10.1062  -9.6013  -9.5851  -8.8450  -8.8369
    -8.8194  -8.7968  -8.7442  -8.6031  -8.2048  -8.1131  -7.9669  -7.8356
    -7.8296  -7.4507  -7.4351  -7.3083  -7.2394  -7.2245  -7.2009  -6.9751
    -6.9536  -6.6300  -6.4946  -6.1628  -6.1541  -5.8873  -5.4239  -5.3256
    -5.2468  -5.2061  -4.9436  -4.8836  -4.5074  -4.3976  -4.3216  -3.9828
    -3.1087  -2.2656  -2.2530  -1.9893  -1.7157  -1.6225  -1.4566  -1.4362
    -1.2762  -1.2709  -1.1884  -0.6670   0.6887   1.0342   1.1123   1.2314
     1.3078   1.4675   1.5294   1.5717   1.5769   1.8586

          k =-0.1667-0.4811 0.0000 ( 59291 PWs)   bands (ev):

   -72.9117 -72.8881 -44.5265 -44.3377 -44.3108 -44.2908 -44.2699 -44.2497
   -21.1233 -20.9169 -20.7289 -20.1670 -19.8103 -19.4719 -19.3233 -19.1806
   -19.0197 -18.7837 -18.6505 -18.5481 -18.1565 -18.0924 -17.9276 -17.7295
   -12.3543 -12.1192 -12.0497 -11.9111 -11.6859 -11.6640 -11.5578 -10.9472
   -10.8960 -10.6293 -10.5277  -9.8662  -9.6987  -9.3415  -9.1165  -8.6782
    -8.6288  -8.5588  -8.3940  -8.3726  -8.1668  -8.1278  -8.0688  -8.0553
    -7.6953  -7.6288  -7.5000  -7.4792  -7.3635  -7.1759  -7.0731  -6.8680
    -6.6278  -6.3946  -6.1876  -6.1635  -5.9773  -5.9347  -5.7893  -5.7510
    -5.4567  -5.4010  -5.2232  -5.0442  -4.4549  -4.3486  -4.0947  -3.7737
    -3.1116  -2.2669  -2.2542  -1.9854  -1.7126  -1.6225  -1.4602  -1.4365
    -1.2742  -1.2667  -1.1858  -0.5915   0.5189   0.8981   1.0802   1.1095
     1.2103   1.2707   1.4089   1.8388   1.9202   2.1148

          k = 0.5000-0.0962 0.0000 ( 59291 PWs)   bands (ev):

   -72.9117 -72.8881 -44.5265 -44.3377 -44.3108 -44.2908 -44.2699 -44.2498
   -21.1198 -20.9264 -20.7228 -20.1649 -19.8097 -19.4755 -19.3297 -19.1742
   -19.0215 -18.7861 -18.6361 -18.5555 -18.1427 -18.1122 -17.9241 -17.7289
   -12.3521 -12.1201 -12.0475 -11.9165 -11.6998 -11.6474 -11.5602 -10.9479
   -10.8931 -10.6271 -10.5310  -9.8634  -9.6993  -9.3425  -9.1157  -8.6666
    -8.6297  -8.5565  -8.4062  -8.3985  -8.1646  -8.1074  -8.0840  -8.0414
    -7.6901  -7.6295  -7.4990  -7.4806  -7.3566  -7.1779  -7.0740  -6.8652
    -6.6283  -6.4090  -6.2025  -6.1626  -5.9607  -5.9338  -5.7884  -5.7555
    -5.4582  -5.4058  -5.1913  -5.0598  -4.4326  -4.3811  -4.0898  -3.7721
    -3.1042  -2.2659  -2.2528  -1.9860  -1.7143  -1.6222  -1.4582  -1.4380
    -1.2778  -1.2731  -1.1906  -0.7045   0.6510   1.0230   1.1289   1.1625
     1.2589   1.3007   1.5706   1.7653   1.8948   1.9457

          k =-0.3333-0.3849 0.0000 ( 59291 PWs)   bands (ev):

   -72.9117 -72.8881 -44.5265 -44.3377 -44.3108 -44.2908 -44.2699 -44.2498
   -21.1211 -20.9230 -20.7252 -20.1644 -19.8128 -19.4724 -19.3231 -19.1793
   -19.0251 -18.7833 -18.6379 -18.5550 -18.1458 -18.1083 -17.9243 -17.7292
   -12.3535 -12.1169 -12.0506 -11.9145 -11.6874 -11.6618 -11.5592 -10.9478
   -10.8929 -10.6264 -10.5316  -9.8641  -9.6994  -9.3420  -9.1171  -8.6706
    -8.6278  -8.5585  -8.3962  -8.3931  -8.1663  -8.1154  -8.0687  -8.0584
    -7.6903  -7.6278  -7.5068  -7.4732  -7.3544  -7.1779  -7.0749  -6.8764
    -6.6257  -6.3972  -6.1847  -6.1654  -5.9766  -5.9325  -5.7887  -5.7652
    -5.4579  -5.3981  -5.1931  -5.0612  -4.4354  -4.3769  -4.0895  -3.7727
    -3.1067  -2.2662  -2.2536  -1.9858  -1.7133  -1.6224  -1.4589  -1.4374
    -1.2765  -1.2709  -1.1889  -0.6702   0.6094   0.9938   1.0983   1.1403
     1.2204   1.3575   1.4661   1.8320   1.9003   1.9454

          k = 0.5000 0.0962 0.0000 ( 59291 PWs)   bands (ev):

   -72.9117 -72.8881 -44.5265 -44.3377 -44.3108 -44.2908 -44.2699 -44.2498
   -21.1198 -20.9264 -20.7228 -20.1649 -19.8097 -19.4755 -19.3297 -19.1742
   -19.0215 -18.7860 -18.6361 -18.5555 -18.1427 -18.1123 -17.9241 -17.7289
   -12.3521 -12.1201 -12.0475 -11.9166 -11.6998 -11.6474 -11.5602 -10.9478
   -10.8931 -10.6271 -10.5310  -9.8634  -9.6993  -9.3425  -9.1157  -8.6666
    -8.6297  -8.5566  -8.4062  -8.3985  -8.1646  -8.1074  -8.0840  -8.0414
    -7.6901  -7.6294  -7.4990  -7.4806  -7.3566  -7.1779  -7.0740  -6.8652
    -6.6282  -6.4090  -6.2025  -6.1625  -5.9607  -5.9338  -5.7885  -5.7555
    -5.4582  -5.4058  -5.1913  -5.0597  -4.4326  -4.3810  -4.0898  -3.7721
    -3.1042  -2.2659  -2.2528  -1.9860  -1.7143  -1.6222  -1.4582  -1.4380
    -1.2778  -1.2731  -1.1906  -0.7045   0.6510   1.0230   1.1289   1.1625
     1.2588   1.3007   1.5706   1.7653   1.8948   1.9457

          k =-0.3333 0.3849 0.0000 ( 59291 PWs)   bands (ev):

   -72.9117 -72.8881 -44.5265 -44.3377 -44.3108 -44.2908 -44.2699 -44.2498
   -21.1211 -20.9230 -20.7252 -20.1644 -19.8128 -19.4724 -19.3231 -19.1793
   -19.0251 -18.7833 -18.6379 -18.5550 -18.1458 -18.1083 -17.9243 -17.7292
   -12.3535 -12.1169 -12.0506 -11.9145 -11.6874 -11.6619 -11.5592 -10.9478
   -10.8929 -10.6264 -10.5316  -9.8641  -9.6993  -9.3420  -9.1172  -8.6706
    -8.6279  -8.5584  -8.3962  -8.3931  -8.1663  -8.1154  -8.0687  -8.0584
    -7.6903  -7.6278  -7.5068  -7.4732  -7.3544  -7.1779  -7.0750  -6.8764
    -6.6258  -6.3972  -6.1847  -6.1655  -5.9766  -5.9326  -5.7887  -5.7652
    -5.4578  -5.3981  -5.1932  -5.0612  -4.4355  -4.3769  -4.0895  -3.7726
    -3.1067  -2.2662  -2.2536  -1.9858  -1.7133  -1.6224  -1.4589  -1.4374
    -1.2765  -1.2709  -1.1889  -0.6702   0.6094   0.9938   1.0983   1.1403
     1.2204   1.3576   1.4662   1.8320   1.9004   1.9454

          k =-0.1667-0.0962 0.0000 ( 59226 PWs)   bands (ev):

   -72.9117 -72.8881 -44.5265 -44.3377 -44.3108 -44.2908 -44.2699 -44.2497
   -21.3193 -20.5425 -20.3543 -20.3407 -19.9990 -19.9825 -19.8106 -18.7410
   -18.7239 -18.3830 -18.3753 -18.3586 -18.2715 -18.2696 -18.0845 -18.0738
   -12.5112 -12.5095 -12.4133 -11.5890 -11.5794 -11.4296 -11.4282 -10.9324
   -10.9280  -9.9365  -9.9301  -9.6814  -9.3806  -9.3779  -9.2360  -9.2325
    -9.0477  -9.0456  -8.9316  -8.3306  -8.3255  -7.9075  -7.9051  -7.8907
    -7.8504  -7.7759  -7.6202  -7.5816  -7.1508  -7.0899  -6.9653  -6.8950
    -6.8894  -6.8549  -6.5385  -6.5320  -6.2631  -5.3716  -5.3143  -5.1487
    -5.0710  -4.8246  -4.8080  -4.7513  -4.6173  -4.6107  -4.3614  -4.3310
    -3.1157  -2.2658  -2.2550  -1.9923  -1.7159  -1.6229  -1.4564  -1.4340
    -1.2738  -1.2662  -1.1848  -0.5843   0.6831   0.8484   1.0248   1.2149
     1.2846   1.3507   1.5787   1.5905   1.7338   1.9499

          k =-0.0000-0.1925 0.0000 ( 59226 PWs)   bands (ev):

   -72.9117 -72.8881 -44.5265 -44.3377 -44.3108 -44.2908 -44.2699 -44.2497
   -21.3195 -20.5365 -20.3578 -20.3481 -19.9906 -19.9818 -19.8147 -18.7347
   -18.7254 -18.4139 -18.3672 -18.3581 -18.2595 -18.2578 -18.0861 -18.0784
   -12.5193 -12.5017 -12.4131 -11.5881 -11.5816 -11.4372 -11.4174 -10.9328
   -10.9299  -9.9340  -9.9327  -9.6812  -9.3859  -9.3711  -9.2357  -9.2348
    -9.0470  -9.0457  -8.9322  -8.3287  -8.3266  -7.9080  -7.9017  -7.8721
    -7.8505  -7.7780  -7.6333  -7.6049  -7.1140  -7.0985  -6.9636  -6.8948
    -6.8913  -6.8662  -6.5369  -6.5329  -6.2637  -5.3481  -5.3277  -5.1492
    -5.0705  -4.8796  -4.7832  -4.7583  -4.6023  -4.5873  -4.3564  -4.3467
    -3.1182  -2.2661  -2.2558  -1.9921  -1.7150  -1.6230  -1.4572  -1.4337
    -1.2728  -1.2639  -1.1834  -0.5377   0.6210   0.7821   1.0116   1.1796
     1.2582   1.4024   1.5646   1.6127   1.6892   1.9960

          k = 0.5000-0.8660 0.0000 ( 59292 PWs)   bands (ev):

   -72.9117 -72.8881 -44.5265 -44.3377 -44.3108 -44.2908 -44.2698 -44.2497
   -21.0583 -21.0504 -20.4791 -20.4654 -19.4364 -19.4311 -19.4145 -19.4123
   -18.9994 -18.9931 -18.3307 -18.3276 -18.3206 -18.3199 -17.8026 -17.7903
   -12.0755 -12.0730 -12.0674 -12.0667 -11.8867 -11.8753 -11.3358 -11.3312
   -10.2436 -10.2345 -10.1417 -10.1400 -10.1316 -10.1309  -8.6066  -8.5556
    -8.5522  -8.5488  -8.5475  -8.5419  -7.8726  -7.8713  -7.8619  -7.8613
    -7.8301  -7.8232  -7.7944  -7.7522  -7.4954  -7.4920  -6.6204  -6.6101
    -6.3743  -6.3517  -6.2999  -6.2950  -6.1955  -6.1924  -5.7222  -5.6979
    -5.5517  -5.5471  -4.7384  -4.7365  -4.6972  -4.6885  -3.9008  -3.8659
    -3.1042  -2.2658  -2.2528  -1.9860  -1.7137  -1.6223  -1.4581  -1.4380
    -1.2778  -1.2731  -1.1906  -0.7048   0.6654   1.0262   1.1123   1.1560
     1.3549   1.5640   1.5868   1.6214   1.7526   1.8034

          k =-1.0000 0.0000 0.0000 ( 59292 PWs)   bands (ev):

   -72.9117 -72.8881 -44.5265 -44.3377 -44.3108 -44.2908 -44.2699 -44.2497
   -21.0836 -21.0216 -20.4799 -20.4704 -19.4366 -19.4329 -19.4157 -19.4018
   -19.0215 -18.9721 -18.3949 -18.3159 -18.3084 -18.2810 -17.8013 -17.7938
   -12.1217 -12.0723 -12.0504 -12.0341 -11.8851 -11.8771 -11.3572 -11.3118
   -10.2486 -10.2469 -10.1358 -10.1357 -10.1291 -10.1289  -8.6445  -8.5894
    -8.5556  -8.5349  -8.5184  -8.4927  -7.8827  -7.8749  -7.8668  -7.8648
    -7.8179  -7.8171  -7.7928  -7.7715  -7.5220  -7.4678  -6.6162  -6.6112
    -6.3656  -6.3533  -6.3014  -6.2795  -6.2167  -6.1748  -5.7487  -5.6755
    -5.5744  -5.5244  -4.8489  -4.6992  -4.6779  -4.6401  -3.8901  -3.8801
    -3.1141  -2.2672  -2.2540  -1.9852  -1.7122  -1.6225  -1.4606  -1.4362
    -1.2731  -1.2646  -1.1843  -0.5460   0.4818   0.8290   1.0894   1.0978
     1.1493   1.5244   1.5863   1.6200   1.6334   1.9165

 ------ SPIN DOWN ----------


          k = 0.1667 0.2887 0.0000 ( 59267 PWs)   bands (ev):

   -68.7386 -68.7122 -40.4988 -40.2840 -40.1559 -40.1328 -40.0841 -40.0609
   -21.2491 -20.6630 -20.6575 -20.1046 -20.1005 -19.5887 -19.5853 -19.1012
   -18.7002 -18.6929 -18.4568 -18.4546 -18.1962 -18.0865 -18.0796 -17.8511
   -12.4876 -12.2080 -12.2061 -11.8235 -11.8212 -11.6619 -11.1952 -11.1916
   -10.3944 -10.3710 -10.1203 -10.1175  -9.5925  -9.5910  -8.8288  -8.8270
    -8.8228  -8.7689  -8.7652  -8.5994  -8.2001  -8.0407  -8.0053  -7.8326
    -7.8303  -7.4412  -7.4392  -7.2662  -7.2544  -7.2112  -7.2097  -6.9616
    -6.9603  -6.5565  -6.5291  -6.1568  -6.1558  -5.8616  -5.4210  -5.2857
    -5.2645  -5.2030  -4.9008  -4.8959  -4.4966  -4.3469  -4.3340  -3.9713
    -1.5038   0.4517   0.7020   0.8289   0.9416   1.1470   1.2498   1.3008
     1.3767   1.4603   1.5413   1.6026   1.6648   1.7155   1.8542   1.9907
     2.0709   2.1227   2.1302   2.2039   2.3376   2.3913

          k = 0.1667-0.4811 0.0000 ( 59291 PWs)   bands (ev):

   -68.7386 -68.7122 -40.4988 -40.2840 -40.1559 -40.1328 -40.0841 -40.0609
   -21.1190 -20.9137 -20.7250 -20.1630 -19.8065 -19.4680 -19.3193 -19.1766
   -19.0158 -18.7800 -18.6449 -18.5451 -18.1507 -18.0902 -17.9235 -17.7253
   -12.3519 -12.1168 -12.0475 -11.9090 -11.6838 -11.6616 -11.5555 -10.9446
   -10.8933 -10.6267 -10.5255  -9.8632  -9.6964  -9.3387  -9.1140  -8.6532
    -8.6262  -8.5559  -8.3918  -8.3603  -8.1645  -8.1111  -8.0662  -8.0531
    -7.6924  -7.6264  -7.4974  -7.4771  -7.3452  -7.1731  -7.0707  -6.8513
    -6.6246  -6.3789  -6.1692  -6.1609  -5.9625  -5.9316  -5.7866  -5.7354
    -5.4541  -5.3871  -5.1984  -5.0355  -4.4330  -4.3426  -4.0809  -3.7597
    -1.4956   0.4429   0.6959   0.8122   0.9717   1.0318   1.1589   1.2327
     1.3134   1.3644   1.5982   1.7107   1.7539   1.8548   1.9051   2.0965
     2.1297   2.1502   2.1826   2.2405   2.3133   2.3803

          k = 0.1667-0.0962 0.0000 ( 59226 PWs)   bands (ev):

   -68.7386 -68.7122 -40.4988 -40.2840 -40.1558 -40.1328 -40.0841 -40.0609
   -21.3155 -20.5381 -20.3504 -20.3377 -19.9940 -19.9794 -19.8074 -18.7353
   -18.7205 -18.3774 -18.3712 -18.3554 -18.2673 -18.2656 -18.0808 -18.0706
   -12.5089 -12.5072 -12.4110 -11.5864 -11.5776 -11.4271 -11.4258 -10.9298
   -10.9257  -9.9336  -9.9281  -9.6786  -9.3780  -9.3756  -9.2329  -9.2299
    -9.0451  -9.0435  -8.9120  -8.3273  -8.3227  -7.9047  -7.9027  -7.8670
    -7.8470  -7.7735  -7.6028  -7.5719  -7.1238  -7.0802  -6.9625  -6.8923
    -6.8874  -6.8447  -6.5357  -6.5298  -6.2605  -5.3433  -5.3037  -5.1459
    -5.0682  -4.8009  -4.7906  -4.7414  -4.6039  -4.5991  -4.3460  -4.3220
    -1.5120   0.4633   0.7036   0.8400   0.9094   1.0853   1.1873   1.2703
     1.4742   1.5231   1.6063   1.6770   1.7595   1.7789   1.8565   1.9408
     2.0313   2.0580   2.1173   2.1935   2.2778   2.3908

          k =-0.5000-0.8660 0.0000 ( 59292 PWs)   bands (ev):

   -68.7386 -68.7122 -40.4988 -40.2840 -40.1559 -40.1328 -40.0840 -40.0609
   -21.0528 -21.0480 -20.4749 -20.4624 -19.4306 -19.4262 -19.4117 -19.4093
   -18.9940 -18.9908 -18.3243 -18.3211 -18.3187 -18.3180 -17.7980 -17.7868
   -12.0721 -12.0695 -12.0661 -12.0654 -11.8842 -11.8738 -11.3328 -11.3294
   -10.2404 -10.2326 -10.1384 -10.1372 -10.1293 -10.1286  -8.5754  -8.5514
    -8.5487  -8.5473  -8.5461  -8.5338  -7.8694  -7.8684  -7.8600  -7.8593
    -7.8268  -7.8200  -7.7754  -7.7424  -7.4922  -7.4904  -6.6170  -6.6082
    -6.3421  -6.3283  -6.2918  -6.2865  -6.1921  -6.1903  -5.7026  -5.6894
    -5.5478  -5.5454  -4.7142  -4.7114  -4.6899  -4.6848  -3.8831  -3.8566
    -1.4766   0.2140   0.7067   0.8557   0.9628   1.0538   1.2048   1.3353
     1.4922   1.5589   1.5726   1.6770   1.7522   1.8505   1.8750   1.9291
     2.0552   2.0729   2.1954   2.2250   2.3228   2.3985

          k =-0.1667 0.2887 0.0000 ( 59267 PWs)   bands (ev):

   -68.7386 -68.7122 -40.4988 -40.2840 -40.1559 -40.1328 -40.0841 -40.0609
   -21.2491 -20.6630 -20.6575 -20.1046 -20.1005 -19.5887 -19.5853 -19.1012
   -18.7001 -18.6929 -18.4568 -18.4546 -18.1962 -18.0865 -18.0796 -17.8511
   -12.4876 -12.2080 -12.2061 -11.8235 -11.8212 -11.6619 -11.1952 -11.1916
   -10.3944 -10.3710 -10.1203 -10.1175  -9.5924  -9.5910  -8.8288  -8.8269
    -8.8227  -8.7689  -8.7653  -8.5994  -8.2002  -8.0407  -8.0054  -7.8326
    -7.8303  -7.4412  -7.4392  -7.2662  -7.2544  -7.2112  -7.2097  -6.9616
    -6.9604  -6.5565  -6.5291  -6.1568  -6.1558  -5.8616  -5.4211  -5.2857
    -5.2645  -5.2029  -4.9008  -4.8959  -4.4967  -4.3469  -4.3340  -3.9712
    -1.5038   0.4518   0.7020   0.8289   0.9416   1.1471   1.2498   1.3008
     1.3767   1.4603   1.5413   1.6025   1.6648   1.7156   1.8542   1.9907
     2.0709   2.1227   2.1302   2.2039   2.3378   2.3914

          k = 0.3333 0.0000 0.0000 ( 59267 PWs)   bands (ev):

   -68.7386 -68.7122 -40.4988 -40.2840 -40.1559 -40.1328 -40.0841 -40.0609
   -21.2486 -20.6892 -20.6312 -20.1139 -20.0893 -19.6168 -19.5596 -19.1038
   -18.7166 -18.6706 -18.4689 -18.4440 -18.1919 -18.1109 -18.0625 -17.8500
   -12.4863 -12.2159 -12.1988 -11.8341 -11.8135 -11.6597 -11.2133 -11.1735
   -10.3943 -10.3700 -10.1343 -10.1045  -9.5985  -9.5833  -8.8337  -8.8272
    -8.8145  -8.7931  -8.7430  -8.6006  -8.2022  -8.0827  -7.9630  -7.8331
    -7.8275  -7.4469  -7.4328  -7.2849  -7.2309  -7.2212  -7.1992  -6.9720
    -6.9516  -6.6013  -6.4905  -6.1599  -6.1519  -5.8677  -5.4209  -5.3016
    -5.2379  -5.2034  -4.9234  -4.8751  -4.4903  -4.3782  -4.3141  -3.9697
    -1.4916   0.2894   0.7306   0.8446   0.9424   1.0639   1.2428   1.4103
     1.4624   1.4996   1.5480   1.6720   1.7279   1.8136   1.8502   1.9629
     2.0278   2.0834   2.1658   2.2503   2.3331   2.3912

          k =-0.1667-0.4811 0.0000 ( 59291 PWs)   bands (ev):

   -68.7386 -68.7122 -40.4988 -40.2840 -40.1559 -40.1328 -40.0841 -40.0609
   -21.1190 -20.9137 -20.7250 -20.1630 -19.8065 -19.4680 -19.3193 -19.1766
   -19.0158 -18.7800 -18.6449 -18.5451 -18.1507 -18.0902 -17.9235 -17.7253
   -12.3519 -12.1168 -12.0475 -11.9090 -11.6838 -11.6616 -11.5555 -10.9446
   -10.8933 -10.6267 -10.5254  -9.8632  -9.6964  -9.3387  -9.1140  -8.6532
    -8.6262  -8.5559  -8.3917  -8.3603  -8.1644  -8.1111  -8.0662  -8.0532
    -7.6924  -7.6264  -7.4973  -7.4771  -7.3452  -7.1731  -7.0707  -6.8513
    -6.6246  -6.3789  -6.1693  -6.1609  -5.9625  -5.9316  -5.7866  -5.7353
    -5.4542  -5.3871  -5.1983  -5.0355  -4.4330  -4.3427  -4.0809  -3.7597
    -1.4956   0.4429   0.6959   0.8122   0.9717   1.0318   1.1589   1.2327
     1.3134   1.3644   1.5982   1.7107   1.7539   1.8549   1.9051   2.0965
     2.1297   2.1502   2.1826   2.2407   2.3129   2.3792

          k = 0.5000-0.0962 0.0000 ( 59291 PWs)   bands (ev):

   -68.7386 -68.7122 -40.4988 -40.2840 -40.1559 -40.1328 -40.0841 -40.0609
   -21.1159 -20.9222 -20.7197 -20.1611 -19.8059 -19.4711 -19.3251 -19.1710
   -19.0174 -18.7820 -18.6323 -18.5515 -18.1383 -18.1078 -17.9205 -17.7248
   -12.3498 -12.1177 -12.0455 -11.9140 -11.6970 -11.6460 -11.5577 -10.9453
   -10.8906 -10.6245 -10.5285  -9.8607  -9.6968  -9.3396  -9.1133  -8.6448
    -8.6269  -8.5538  -8.3972  -8.3838  -8.1624  -8.0963  -8.0804  -8.0402
    -7.6877  -7.6270  -7.4964  -7.4784  -7.3402  -7.1748  -7.0715  -6.8495
    -6.6250  -6.3877  -6.1815  -6.1601  -5.9504  -5.9309  -5.7858  -5.7384
    -5.4555  -5.3903  -5.1756  -5.0470  -4.4136  -4.3690  -4.0774  -3.7588
    -1.4766   0.2159   0.7048   0.8452   0.9684   1.0417   1.1436   1.2393
     1.3696   1.5450   1.6778   1.7475   1.8402   1.8780   1.9876   2.0344
     2.0666   2.1130   2.1995   2.2470   2.3312   2.3858

          k =-0.3333-0.3849 0.0000 ( 59291 PWs)   bands (ev):

   -68.7386 -68.7122 -40.4988 -40.2840 -40.1559 -40.1328 -40.0841 -40.0609
   -21.1170 -20.9192 -20.7218 -20.1607 -19.8087 -19.4685 -19.3192 -19.1754
   -19.0206 -18.7796 -18.6339 -18.5512 -18.1409 -18.1044 -17.9206 -17.7251
   -12.3512 -12.1146 -12.0484 -11.9120 -11.6853 -11.6596 -11.5568 -10.9452
   -10.8905 -10.6239 -10.5289  -9.8613  -9.6970  -9.3392  -9.1146  -8.6475
    -8.6253  -8.5555  -8.3936  -8.3755  -8.1640  -8.1022  -8.0660  -8.0561
    -7.6880  -7.6254  -7.5036  -7.4717  -7.3388  -7.1748  -7.0723  -6.8571
    -6.6228  -6.3804  -6.1684  -6.1622  -5.9611  -5.9297  -5.7861  -5.7458
    -5.4553  -5.3849  -5.1769  -5.0478  -4.4162  -4.3655  -4.0772  -3.7591
    -1.4831   0.2790   0.6956   0.8374   0.9648   1.0345   1.2082   1.2576
     1.3091   1.4429   1.6640   1.7508   1.8244   1.9342   1.9647   2.0540
     2.0650   2.0970   2.1414   2.2178   2.3350   2.3896

          k = 0.5000 0.0962 0.0000 ( 59291 PWs)   bands (ev):

   -68.7386 -68.7122 -40.4988 -40.2840 -40.1559 -40.1328 -40.0841 -40.0609
   -21.1159 -20.9222 -20.7197 -20.1611 -19.8059 -19.4711 -19.3251 -19.1710
   -19.0174 -18.7820 -18.6323 -18.5516 -18.1383 -18.1078 -17.9205 -17.7248
   -12.3498 -12.1177 -12.0455 -11.9140 -11.6970 -11.6460 -11.5577 -10.9453
   -10.8906 -10.6245 -10.5285  -9.8607  -9.6969  -9.3396  -9.1133  -8.6448
    -8.6269  -8.5538  -8.3972  -8.3838  -8.1624  -8.0963  -8.0804  -8.0401
    -7.6878  -7.6269  -7.4965  -7.4785  -7.3402  -7.1748  -7.0715  -6.8495
    -6.6250  -6.3877  -6.1815  -6.1600  -5.9504  -5.9308  -5.7859  -5.7384
    -5.4555  -5.3903  -5.1756  -5.0469  -4.4136  -4.3690  -4.0774  -3.7588
    -1.4766   0.2158   0.7048   0.8452   0.9684   1.0417   1.1436   1.2393
     1.3695   1.5450   1.6778   1.7475   1.8402   1.8779   1.9876   2.0344
     2.0666   2.1130   2.1995   2.2470   2.3315   2.3858

          k =-0.3333 0.3849 0.0000 ( 59291 PWs)   bands (ev):

   -68.7386 -68.7122 -40.4988 -40.2840 -40.1559 -40.1328 -40.0841 -40.0609
   -21.1170 -20.9192 -20.7218 -20.1607 -19.8087 -19.4685 -19.3192 -19.1754
   -19.0206 -18.7796 -18.6339 -18.5512 -18.1409 -18.1044 -17.9206 -17.7251
   -12.3512 -12.1146 -12.0485 -11.9120 -11.6853 -11.6597 -11.5568 -10.9452
   -10.8904 -10.6239 -10.5289  -9.8613  -9.6969  -9.3392  -9.1146  -8.6475
    -8.6254  -8.5554  -8.3936  -8.3755  -8.1640  -8.1022  -8.0659  -8.0561
    -7.6879  -7.6254  -7.5036  -7.4717  -7.3388  -7.1748  -7.0724  -6.8571
    -6.6228  -6.3804  -6.1684  -6.1623  -5.9610  -5.9298  -5.7860  -5.7458
    -5.4552  -5.3849  -5.1769  -5.0478  -4.4163  -4.3655  -4.0772  -3.7591
    -1.4831   0.2790   0.6956   0.8374   0.9648   1.0345   1.2082   1.2576
     1.3091   1.4428   1.6640   1.7508   1.8244   1.9342   1.9647   2.0540
     2.0650   2.0969   2.1413   2.2178   2.3350   2.3893

          k =-0.1667-0.0962 0.0000 ( 59226 PWs)   bands (ev):

   -68.7386 -68.7122 -40.4988 -40.2840 -40.1558 -40.1328 -40.0841 -40.0609
   -21.3155 -20.5381 -20.3504 -20.3377 -19.9940 -19.9794 -19.8074 -18.7353
   -18.7205 -18.3774 -18.3712 -18.3554 -18.2673 -18.2656 -18.0807 -18.0706
   -12.5089 -12.5072 -12.4110 -11.5864 -11.5776 -11.4272 -11.4258 -10.9298
   -10.9257  -9.9336  -9.9281  -9.6785  -9.3780  -9.3756  -9.2330  -9.2299
    -9.0451  -9.0435  -8.9120  -8.3273  -8.3227  -7.9047  -7.9027  -7.8670
    -7.8469  -7.7736  -7.6028  -7.5719  -7.1238  -7.0802  -6.9626  -6.8923
    -6.8873  -6.8447  -6.5356  -6.5298  -6.2606  -5.3434  -5.3037  -5.1458
    -5.0683  -4.8008  -4.7906  -4.7414  -4.6039  -4.5991  -4.3460  -4.3220
    -1.5120   0.4633   0.7036   0.8400   0.9094   1.0853   1.1873   1.2703
     1.4743   1.5232   1.6063   1.6771   1.7595   1.7789   1.8565   1.9407
     2.0314   2.0580   2.1173   2.1936   2.2779   2.3923

          k =-0.0000-0.1925 0.0000 ( 59226 PWs)   bands (ev):

   -68.7386 -68.7122 -40.4987 -40.2840 -40.1558 -40.1328 -40.0841 -40.0609
   -21.3156 -20.5328 -20.3533 -20.3444 -19.9868 -19.9785 -19.8111 -18.7300
   -18.7216 -18.4060 -18.3632 -18.3544 -18.2577 -18.2544 -18.0820 -18.0747
   -12.5167 -12.4997 -12.4108 -11.5856 -11.5794 -11.4347 -11.4155 -10.9300
   -10.9274  -9.9316  -9.9302  -9.6784  -9.3829  -9.3692  -9.2329  -9.2319
    -9.0446  -9.0435  -8.9124  -8.3258  -8.3236  -7.9055  -7.8996  -7.8556
    -7.8446  -7.7754  -7.6108  -7.5902  -7.0989  -7.0845  -6.9611  -6.8922
    -6.8889  -6.8534  -6.5343  -6.5306  -6.2611  -5.3277  -5.3117  -5.1462
    -5.0678  -4.8457  -4.7718  -4.7439  -4.5952  -4.5790  -4.3433  -4.3324
    -1.5178   0.5954   0.6773   0.8243   0.9112   1.1430   1.1645   1.1969
     1.4357   1.4922   1.5426   1.5920   1.7045   1.7867   1.9303   1.9692
     2.0376   2.0919   2.1117   2.1843   2.2562   2.3754

          k = 0.5000-0.8660 0.0000 ( 59292 PWs)   bands (ev):

   -68.7386 -68.7122 -40.4988 -40.2840 -40.1559 -40.1328 -40.0840 -40.0609
   -21.0528 -21.0480 -20.4749 -20.4624 -19.4306 -19.4262 -19.4117 -19.4093
   -18.9940 -18.9909 -18.3243 -18.3210 -18.3188 -18.3180 -17.7980 -17.7868
   -12.0721 -12.0694 -12.0661 -12.0654 -11.8841 -11.8738 -11.3328 -11.3294
   -10.2404 -10.2326 -10.1384 -10.1372 -10.1293 -10.1287  -8.5753  -8.5514
    -8.5486  -8.5473  -8.5462  -8.5338  -7.8694  -7.8683  -7.8600  -7.8593
    -7.8269  -7.8200  -7.7753  -7.7424  -7.4923  -7.4905  -6.6170  -6.6082
    -6.3421  -6.3284  -6.2918  -6.2865  -6.1920  -6.1902  -5.7026  -5.6894
    -5.5479  -5.5455  -4.7142  -4.7114  -4.6899  -4.6848  -3.8831  -3.8566
    -1.4766   0.2139   0.7067   0.8557   0.9628   1.0539   1.2048   1.3353
     1.4922   1.5589   1.5725   1.6770   1.7522   1.8505   1.8750   1.9292
     2.0552   2.0729   2.1953   2.2250   2.3227   2.3987

          k =-1.0000 0.0000 0.0000 ( 59292 PWs)   bands (ev):

   -68.7386 -68.7122 -40.4988 -40.2840 -40.1559 -40.1328 -40.0841 -40.0609
   -21.0780 -21.0198 -20.4756 -20.4668 -19.4319 -19.4285 -19.4121 -19.3991
   -19.0157 -18.9703 -18.3857 -18.3120 -18.3053 -18.2805 -17.7970 -17.7897
   -12.1174 -12.0698 -12.0488 -12.0334 -11.8829 -11.8752 -11.3536 -11.3103
   -10.2455 -10.2435 -10.1332 -10.1332 -10.1272 -10.1265  -8.6119  -8.5846
    -8.5529  -8.5335  -8.5177  -8.4889  -7.8790  -7.8718  -7.8643  -7.8623
    -7.8150  -7.8137  -7.7745  -7.7568  -7.5183  -7.4668  -6.6135  -6.6088
    -6.3405  -6.3299  -6.2912  -6.2720  -6.2125  -6.1728  -5.7284  -5.6668
    -5.5701  -5.5233  -4.8084  -4.6871  -4.6699  -4.6390  -3.8763  -3.8657
    -1.5016   0.5596   0.7064   0.8102   0.9798   1.0307   1.1284   1.2418
     1.3029   1.4803   1.6079   1.6365   1.6749   1.7230   1.8249   1.8858
     2.0739   2.1719   2.2135   2.2311   2.3608   2.3918

     the Fermi energy is    -1.1315 ev

!    total energy              =   -1133.81748760 Ry

     total all-electron energy =     -6753.493191 Ry
     estimated scf accuracy    <       0.00000002 Ry
     smearing contrib. (-TS)   =      -0.00000000 Ry
     internal energy E=F+TS    =   -1133.81748760 Ry

     The total energy is F=E-TS. E is the sum of the following terms:
     one-electron contribution =   -3964.31987712 Ry
     hartree contribution      =    2010.29918313 Ry
     xc contribution           =    -186.04119621 Ry
     ewald contribution        =    1365.61616730 Ry
     DFT-D3 Dispersion         =      -0.12462072 Ry
     one-center paw contrib.   =    -359.24714398 Ry

     total magnetization       =    10.00 Bohr mag/cell
     absolute magnetization    =    10.01 Bohr mag/cell

     convergence has been achieved in  15 iterations

     Writing output data file ./mytmp/Crdimer0.13-0.1.save/
 
     init_run     :     18.98s CPU     20.29s WALL (       1 calls)
     electrons    :    559.88s CPU    608.82s WALL (       1 calls)

     Called by init_run:
     wfcinit      :     13.91s CPU     14.67s WALL (       1 calls)
     potinit      :      1.49s CPU      1.61s WALL (       1 calls)
     hinit0       :      1.56s CPU      1.66s WALL (       1 calls)

     Called by electrons:
     c_bands      :    437.93s CPU    465.43s WALL (      15 calls)
     sum_band     :     86.94s CPU     99.07s WALL (      15 calls)
     v_of_rho     :      8.06s CPU      8.89s WALL (      16 calls)
     newd         :     19.17s CPU     26.99s WALL (      16 calls)
     PAW_pot      :      7.25s CPU      7.99s WALL (      16 calls)
     mix_rho      :      1.05s CPU      1.15s WALL (      15 calls)

     Called by c_bands:
     init_us_2    :      5.38s CPU      5.43s WALL (     930 calls)
     cegterg      :    424.69s CPU    452.08s WALL (     450 calls)

     Called by *egterg:
     cdiaghg      :     26.06s CPU     40.59s WALL (    2792 calls)
     h_psi        :    260.67s CPU    271.14s WALL (    2822 calls)
     s_psi        :     28.72s CPU     28.78s WALL (    2822 calls)
     g_psi        :      0.75s CPU      0.77s WALL (    2342 calls)

     Called by h_psi:
     h_psi:calbec :     30.69s CPU     31.51s WALL (    2822 calls)
     vloc_psi     :    198.42s CPU    207.92s WALL (    2822 calls)
     add_vuspsi   :     29.18s CPU     29.31s WALL (    2822 calls)

     General routines
     calbec       :     41.00s CPU     42.10s WALL (    3272 calls)
     fft          :     10.37s CPU     15.09s WALL (     394 calls)
     ffts         :      0.12s CPU      0.13s WALL (      62 calls)
     fftw         :    204.72s CPU    214.23s WALL (  267588 calls)
     interpolate  :      0.43s CPU      0.46s WALL (      32 calls)
 
     Parallel routines
     fft_scatt_xy :     33.40s CPU     34.68s WALL (  268044 calls)
     fft_scatt_yz :     86.15s CPU     95.31s WALL (  268044 calls)
 
     PWSCF        :   9m40.93s CPU  10m33.96s WALL

 
   This run was terminated on:  13:14:47  31Mar2021            

=------------------------------------------------------------------------------=
   JOB DONE.
=------------------------------------------------------------------------------=
