
     Program PWSCF v.6.7MaX starts on 31Mar2021 at 12:16:41 

     This program is part of the open-source Quantum ESPRESSO suite
     for quantum simulation of materials; please cite
         "P. Giannozzi et al., J. Phys.:Condens. Matter 21 395502 (2009);
         "P. Giannozzi et al., J. Phys.:Condens. Matter 29 465901 (2017);
          URL http://www.quantum-espresso.org", 
     in publications or presentations arising from this work. More details at
     http://www.quantum-espresso.org/quote

     Parallel version (MPI), running on    48 processors

     MPI processes distributed on     1 nodes
     R & G space division:  proc/nbgrp/npool/nimage =      48
     Reading input from Crdimer0.12-0.2.scf.in

     Current dimensions of program PWSCF are:
     Max number of different atomic species (ntypx) = 10
     Max number of k-points (npk) =  40000
     Max angular momentum in pseudopotentials (lmaxx) =  3
     file N.pbe-n-kjpaw_psl.1.0.0.UPF: wavefunction(s)  2S renormalized
     file Cr.pbe-spn-kjpaw_psl.1.0.0.UPF: wavefunction(s)  3S 3P 3D renormalized
     file Cr.pbe-spn-kjpaw_psl.1.0.0.UPF: wavefunction(s)  3S 3P 3D renormalized

     --------------------------------------------
     Parameters for DFT-D3 Dispersion Correction:
     --------------------------------------------
       Reference C6 values for interpolation: 

         atom   Coordination number   C6
         B          0.000           214.36
         B          0.971           150.74
         B          1.944           106.23
         B          2.913            62.89
         B          4.586            56.06
         N          0.000            50.54
         N          0.994            44.25
         N          2.014            39.35
         N          2.990            31.16
         Cr1        0.000          1381.48
         Cr1        1.827           571.38
         Cr1       10.619           306.69
         Cr2        0.000          1381.48
         Cr2        1.827           571.38
         Cr2       10.619           306.69

       Values used:

         atom   Coordination number  R0_AB[au]  C6      C8
         B          3.337            3.039     62.89   2505.95
         B          3.335            3.039     62.89   2506.01
         B          3.345            3.039     62.89   2505.76
         B          3.335            3.039     62.89   2506.00
         B          3.381            3.039     62.86   2504.70
         B          3.335            3.039     62.89   2506.00
         N          3.134            2.478     31.22    688.69
         N          3.135            2.478     31.22    688.69
         N          3.153            2.478     31.21    688.53
         N          3.135            2.478     31.22    688.69
         N          3.148            2.478     31.21    688.57
         N          3.134            2.478     31.22    688.70
         N          3.141            2.478     31.22    688.64
         N          3.134            2.478     31.22    688.70
         N          3.135            2.478     31.22    688.69
         B          3.337            3.039     62.89   2505.98
         B          3.335            3.039     62.89   2506.01
         B          3.335            3.039     62.89   2506.00
         B          3.381            3.039     62.86   2504.70
         B          3.337            3.039     62.89   2505.95
         B          3.337            3.039     62.89   2505.98
         N          3.141            2.478     31.22    688.64
         B          3.335            3.039     62.89   2506.01
         B          3.338            3.039     62.89   2505.94
         B          3.340            3.039     62.89   2505.89
         N          3.134            2.478     31.22    688.70
         N          3.135            2.478     31.22    688.69
         N          3.134            2.478     31.22    688.69
         N          3.134            2.478     31.22    688.69
         N          3.153            2.478     31.21    688.53
         N          3.135            2.478     31.22    688.69
         B          3.340            3.039     62.89   2505.89
         Cr1        1.074            3.252    623.66  57557.03
         Cr2        1.074            3.252    623.66  57557.03

         Molecular C6 ( Ry / a.u.^6 ) =     69095.93


     Subspace diagonalization in iterative solution of the eigenvalue problem:
     one sub-group per band group will be used
     scalapack distributed-memory algorithm (size of sub-group:  6*  6 procs)

 
     Parallelization info
     --------------------
     sticks:   dense  smooth     PW     G-vecs:    dense   smooth      PW
     Min         235      98     26                36277     9874    1408
     Max         236      99     27                36282     9883    1425
     Sum       11311    4741   1285              1741401   474235   68095
 


     bravais-lattice index     =            4
     lattice parameter (alat)  =      18.9275  a.u.
     unit-cell volume          =   10553.3021 (a.u.)^3
     number of atoms/cell      =           34
     number of atomic types    =            4
     number of electrons       =       156.00
     number of Kohn-Sham states=           94
     kinetic-energy cutoff     =      48.0000  Ry
     charge density cutoff     =     457.0000  Ry
     scf convergence threshold =      1.0E-07
     mixing beta               =       0.5000
     number of iterations used =            8  plain     mixing
     Exchange-correlation= SLA  PW   PBX  PBC
                           (   1   4   3   4   0   0   0)

     celldm(1)=  18.927497  celldm(2)=   0.000000  celldm(3)=   1.797125
     celldm(4)=   0.000000  celldm(5)=   0.000000  celldm(6)=   0.000000

     crystal axes: (cart. coord. in units of alat)
               a(1) = (   1.000000   0.000000   0.000000 )  
               a(2) = (  -0.500000   0.866025   0.000000 )  
               a(3) = (   0.000000   0.000000   1.797125 )  

     reciprocal axes: (cart. coord. in units 2 pi/alat)
               b(1) = (  1.000000  0.577350  0.000000 )  
               b(2) = (  0.000000  1.154701  0.000000 )  
               b(3) = (  0.000000  0.000000  0.556444 )  


     PseudoPot. # 1 for B  read from file:
     /home/sf05/q-e-qe-6.7MaX-Release/pseudo/B.pbe-n-kjpaw_psl.1.0.0.UPF
     MD5 check sum: d9c678ba5d3b2fd7b74e61139c9288d8
     Pseudo is Projector augmented-wave + core cor, Zval =  3.0
     Generated using "atomic" code by A. Dal Corso  v.5.1.2
     Shape of augmentation charge: PSQ
     Using radial grid of 1059 points,  4 beta functions with: 
                l(1) =   0
                l(2) =   0
                l(3) =   1
                l(4) =   1
     Q(r) pseudized with 0 coefficients 


     PseudoPot. # 2 for N  read from file:
     /home/sf05/q-e-qe-6.7MaX-Release/pseudo/N.pbe-n-kjpaw_psl.1.0.0.UPF
     MD5 check sum: e0e4e94a9c4025c5b51bd7d8793849bd
     Pseudo is Projector augmented-wave + core cor, Zval =  5.0
     Generated using "atomic" code by A. Dal Corso  v.5.1.2
     Shape of augmentation charge: PSQ
     Using radial grid of 1085 points,  4 beta functions with: 
                l(1) =   0
                l(2) =   0
                l(3) =   1
                l(4) =   1
     Q(r) pseudized with 0 coefficients 


     PseudoPot. # 3 for Cr read from file:
     /home/sf05/q-e-qe-6.7MaX-Release/pseudo/Cr.pbe-spn-kjpaw_psl.1.0.0.UPF
     MD5 check sum: 198f1a2427a48552563eee314eba32ba
     Pseudo is Projector augmented-wave + core cor, Zval = 14.0
     Generated using &quot;atomic&quot; code by A. Dal Corso  v.6.3
     Shape of augmentation charge: PSQ
     Using radial grid of 1183 points,  6 beta functions with: 
                l(1) =   0
                l(2) =   0
                l(3) =   1
                l(4) =   1
                l(5) =   2
                l(6) =   2
     Q(r) pseudized with 0 coefficients 


     PseudoPot. # 4 for Cr read from file:
     /home/sf05/q-e-qe-6.7MaX-Release/pseudo/Cr.pbe-spn-kjpaw_psl.1.0.0.UPF
     MD5 check sum: 198f1a2427a48552563eee314eba32ba
     Pseudo is Projector augmented-wave + core cor, Zval = 14.0
     Generated using &quot;atomic&quot; code by A. Dal Corso  v.6.3
     Shape of augmentation charge: PSQ
     Using radial grid of 1183 points,  6 beta functions with: 
                l(1) =   0
                l(2) =   0
                l(3) =   1
                l(4) =   1
                l(5) =   2
                l(6) =   2
     Q(r) pseudized with 0 coefficients 


     atomic species   valence    mass     pseudopotential
        B              3.00    10.81100     B ( 1.00)
        N              5.00    14.00674     N ( 1.00)
        Cr1           14.00    51.99610     Cr( 1.00)
        Cr2           14.00    51.99610     Cr( 1.00)

     Starting magnetic structure 
     atomic species   magnetization
        B            0.000
        N            0.000
        Cr1          1.000
        Cr2          1.000

     No symmetry found



   Cartesian axes

     site n.     atom                  positions (alat units)
         1           B   tau(   1) = (  -0.1250000   0.2165064   0.8985623  )
         2           B   tau(   2) = (   0.3750000   0.6495191   0.8985623  )
         3           B   tau(   3) = (   0.2500000   0.0000000   0.8985623  )
         4           B   tau(   4) = (   0.7500000   0.0000000   0.8985623  )
         5           B   tau(   5) = (   0.1250000   0.2165064   0.8985623  )
         6           B   tau(   6) = (  -0.3750000   0.6495191   0.8985623  )
         7           N   tau(   7) = (   0.7500005   0.2886748   0.8985623  )
         8           N   tau(   8) = (   0.3750005   0.5051812   0.8985623  )
         9           N   tau(   9) = (   0.3750005   0.0721685   0.8985623  )
        10           N   tau(  10) = (   0.6250005   0.0721685   0.8985623  )
        11           N   tau(  11) = (   0.2500005   0.2886748   0.8985623  )
        12           N   tau(  12) = (   0.6250005   0.5051812   0.8985623  )
        13           N   tau(  13) = (   0.0000005   0.2886748   0.8985623  )
        14           N   tau(  14) = (   0.2500005   0.7216875   0.8985623  )
        15           N   tau(  15) = (  -0.2499995   0.7216875   0.8985623  )
        16           B   tau(  16) = (   0.0000000   0.4330127   0.8985623  )
        17           B   tau(  17) = (   0.1250000   0.6495191   0.8985623  )
        18           B   tau(  18) = (  -0.1250000   0.6495191   0.8985623  )
        19           B   tau(  19) = (   0.3750000   0.2165064   0.8985623  )
        20           B   tau(  20) = (   0.6250000   0.2165064   0.8985623  )
        21           B   tau(  21) = (   0.5000000   0.4330127   0.8985623  )
        22           N   tau(  22) = (   0.5000005   0.2886748   0.8985623  )
        23           B   tau(  23) = (  -0.2500000   0.4330127   0.8985623  )
        24           B   tau(  24) = (   0.2500000   0.4330127   0.8985623  )
        25           B   tau(  25) = (   0.5000000   0.0000000   0.8985623  )
        26           N   tau(  26) = (  -0.1249995   0.5051812   0.8985623  )
        27           N   tau(  27) = (   0.1250005   0.5051812   0.8985623  )
        28           N   tau(  28) = (   0.0000005   0.7216875   0.8985623  )
        29           N   tau(  29) = (   0.5000005   0.7216875   0.8985623  )
        30           N   tau(  30) = (   0.1250005   0.0721685   0.8985623  )
        31           N   tau(  31) = (   0.8750005   0.0721685   0.8985623  )
        32           B   tau(  32) = (   0.0000000   0.0000000   0.8985623  )
        33           Cr1 tau(  33) = (   0.3700000   0.1732051   1.2040735  )
        34           Cr2 tau(  34) = (   0.1300000   0.1732051   1.2040735  )

     number of k points=    15  Gaussian smearing, width (Ry)=  0.0000
                       cart. coord. in units 2pi/alat
        k(    1) = (   0.1666667   0.2886751   0.0000000), wk =   0.0740741
        k(    2) = (   0.1666667  -0.4811252   0.0000000), wk =   0.0740741
        k(    3) = (   0.1666667  -0.0962250   0.0000000), wk =   0.0740741
        k(    4) = (  -0.5000000  -0.8660254   0.0000000), wk =   0.0370370
        k(    5) = (  -0.1666667   0.2886751   0.0000000), wk =   0.0740741
        k(    6) = (   0.3333333   0.0000000   0.0000000), wk =   0.0740741
        k(    7) = (  -0.1666667  -0.4811252   0.0000000), wk =   0.0740741
        k(    8) = (   0.5000000  -0.0962250   0.0000000), wk =   0.0740741
        k(    9) = (  -0.3333333  -0.3849002   0.0000000), wk =   0.0740741
        k(   10) = (   0.5000000   0.0962250   0.0000000), wk =   0.0740741
        k(   11) = (  -0.3333333   0.3849002   0.0000000), wk =   0.0740741
        k(   12) = (  -0.1666667  -0.0962250   0.0000000), wk =   0.0740741
        k(   13) = (  -0.0000000  -0.1924501   0.0000000), wk =   0.0740741
        k(   14) = (   0.5000000  -0.8660254   0.0000000), wk =   0.0370370
        k(   15) = (  -1.0000000   0.0000000   0.0000000), wk =   0.0370370

     Dense  grid:  1741401 G-vectors     FFT dimensions: ( 135, 135, 240)

     Smooth grid:   474235 G-vectors     FFT dimensions: (  90,  90, 160)

     Estimated max dynamical RAM per process >     218.62 MB

     Estimated total dynamical RAM >      10.25 GB
     Generating pointlists ...
     new r_m :   0.0595 (alat units)  1.1269 (a.u.) for type    1
     new r_m :   0.0595 (alat units)  1.1269 (a.u.) for type    2
     new r_m :   0.0990 (alat units)  1.8738 (a.u.) for type    3
     new r_m :   0.0990 (alat units)  1.8738 (a.u.) for type    4

     Initial potential from superposition of free atoms

     starting charge  155.99382, renormalised to  156.00000

     negative rho (up, down):  6.800E-03 4.655E-04
     Starting wfcs are  148 randomized atomic wfcs
     Checking if some PAW data can be deallocated... 

     total cpu time spent up to now is       19.6 secs

     Self-consistent Calculation

     iteration #  1     ecut=    48.00 Ry     beta= 0.50
     Davidson diagonalization with overlap
     ethr =  1.00E-02,  avg # of iterations =  2.9

     negative rho (up, down):  5.037E-03 2.900E-03

     total cpu time spent up to now is       59.9 secs

     total energy              =   -1130.67357523 Ry
     estimated scf accuracy    <      11.38692700 Ry

     total magnetization       =    12.00 Bohr mag/cell
     absolute magnetization    =    12.10 Bohr mag/cell

     iteration #  2     ecut=    48.00 Ry     beta= 0.50
     Davidson diagonalization with overlap
     ethr =  7.30E-03,  avg # of iterations =  2.7

     negative rho (up, down):  8.627E-03 7.106E-03

     total cpu time spent up to now is       97.1 secs

     total energy              =   -1133.03651899 Ry
     estimated scf accuracy    <       3.40171452 Ry

     total magnetization       =    10.00 Bohr mag/cell
     absolute magnetization    =    10.19 Bohr mag/cell

     iteration #  3     ecut=    48.00 Ry     beta= 0.50
     Davidson diagonalization with overlap
     ethr =  2.18E-03,  avg # of iterations =  7.6

     negative rho (up, down):  3.942E-03 3.362E-03

     total cpu time spent up to now is      135.4 secs

     total energy              =   -1133.54626356 Ry
     estimated scf accuracy    <       0.82053946 Ry

     total magnetization       =    10.00 Bohr mag/cell
     absolute magnetization    =    10.11 Bohr mag/cell

     iteration #  4     ecut=    48.00 Ry     beta= 0.50
     Davidson diagonalization with overlap
     ethr =  5.26E-04,  avg # of iterations =  6.6

     negative rho (up, down):  8.492E-03 8.500E-03

     total cpu time spent up to now is      171.4 secs

     total energy              =   -1133.70308360 Ry
     estimated scf accuracy    <       0.75190784 Ry

     total magnetization       =    10.00 Bohr mag/cell
     absolute magnetization    =    10.01 Bohr mag/cell

     iteration #  5     ecut=    48.00 Ry     beta= 0.50
     Davidson diagonalization with overlap
     ethr =  4.82E-04,  avg # of iterations =  7.4

     negative rho (up, down):  4.579E-03 4.890E-03

     total cpu time spent up to now is      209.3 secs

     total energy              =   -1133.78837426 Ry
     estimated scf accuracy    <       0.05682177 Ry

     total magnetization       =    10.00 Bohr mag/cell
     absolute magnetization    =    10.02 Bohr mag/cell

     iteration #  6     ecut=    48.00 Ry     beta= 0.50
     Davidson diagonalization with overlap
     ethr =  3.64E-05,  avg # of iterations =  9.3

     negative rho (up, down):  3.728E-03 4.135E-03

     total cpu time spent up to now is      251.2 secs

     total energy              =   -1133.79265318 Ry
     estimated scf accuracy    <       0.01449226 Ry

     total magnetization       =    10.00 Bohr mag/cell
     absolute magnetization    =    10.02 Bohr mag/cell

     iteration #  7     ecut=    48.00 Ry     beta= 0.50
     Davidson diagonalization with overlap
     ethr =  9.29E-06,  avg # of iterations =  7.9

     negative rho (up, down):  3.562E-03 4.051E-03

     total cpu time spent up to now is      291.1 secs

     total energy              =   -1133.79591765 Ry
     estimated scf accuracy    <       0.00539277 Ry

     total magnetization       =    10.00 Bohr mag/cell
     absolute magnetization    =    10.01 Bohr mag/cell

     iteration #  8     ecut=    48.00 Ry     beta= 0.50
     Davidson diagonalization with overlap
     ethr =  3.46E-06,  avg # of iterations =  6.6

     negative rho (up, down):  3.303E-03 3.920E-03

     total cpu time spent up to now is      327.1 secs

     total energy              =   -1133.79665158 Ry
     estimated scf accuracy    <       0.00066360 Ry

     total magnetization       =    10.00 Bohr mag/cell
     absolute magnetization    =    10.01 Bohr mag/cell

     iteration #  9     ecut=    48.00 Ry     beta= 0.50
     Davidson diagonalization with overlap
     ethr =  4.25E-07,  avg # of iterations =  4.0

     negative rho (up, down):  3.221E-03 3.902E-03

     total cpu time spent up to now is      358.8 secs

     total energy              =   -1133.79678811 Ry
     estimated scf accuracy    <       0.00009065 Ry

     total magnetization       =    10.00 Bohr mag/cell
     absolute magnetization    =    10.01 Bohr mag/cell

     iteration # 10     ecut=    48.00 Ry     beta= 0.50
     Davidson diagonalization with overlap
     ethr =  5.81E-08,  avg # of iterations =  3.9

     negative rho (up, down):  3.210E-03 3.916E-03

     total cpu time spent up to now is      397.5 secs

     total energy              =   -1133.79684745 Ry
     estimated scf accuracy    <       0.00001784 Ry

     total magnetization       =    10.00 Bohr mag/cell
     absolute magnetization    =    10.01 Bohr mag/cell

     iteration # 11     ecut=    48.00 Ry     beta= 0.50
     Davidson diagonalization with overlap
     ethr =  1.14E-08,  avg # of iterations =  3.7

     negative rho (up, down):  3.203E-03 3.927E-03

     total cpu time spent up to now is      429.8 secs

     total energy              =   -1133.79686435 Ry
     estimated scf accuracy    <       0.00000762 Ry

     total magnetization       =    10.00 Bohr mag/cell
     absolute magnetization    =    10.01 Bohr mag/cell

     iteration # 12     ecut=    48.00 Ry     beta= 0.50
     Davidson diagonalization with overlap
     ethr =  4.88E-09,  avg # of iterations =  3.8

     negative rho (up, down):  3.197E-03 3.929E-03

     total cpu time spent up to now is      461.7 secs

     total energy              =   -1133.79687070 Ry
     estimated scf accuracy    <       0.00000110 Ry

     total magnetization       =    10.00 Bohr mag/cell
     absolute magnetization    =    10.01 Bohr mag/cell

     iteration # 13     ecut=    48.00 Ry     beta= 0.50
     Davidson diagonalization with overlap
     ethr =  7.08E-10,  avg # of iterations =  4.0

     negative rho (up, down):  3.194E-03 3.928E-03

     total cpu time spent up to now is      495.6 secs

     total energy              =   -1133.79687242 Ry
     estimated scf accuracy    <       0.00000024 Ry

     total magnetization       =    10.00 Bohr mag/cell
     absolute magnetization    =    10.01 Bohr mag/cell

     iteration # 14     ecut=    48.00 Ry     beta= 0.50
     Davidson diagonalization with overlap
     ethr =  1.56E-10,  avg # of iterations =  4.4

     negative rho (up, down):  3.192E-03 3.928E-03
 
     Magnetic moment per site:
     atom:    1    charge:    0.8808    magn:    0.0003    constr:    0.0000
     atom:    2    charge:    0.8804    magn:    0.0001    constr:    0.0000
     atom:    3    charge:    0.8796    magn:    0.0003    constr:    0.0000
     atom:    4    charge:    0.8805    magn:    0.0001    constr:    0.0000
     atom:    5    charge:    0.8807    magn:    0.0003    constr:    0.0000
     atom:    6    charge:    0.8803    magn:    0.0001    constr:    0.0000
     atom:    7    charge:    2.8610    magn:    0.0000    constr:    0.0000
     atom:    8    charge:    2.8608    magn:    0.0005    constr:    0.0000
     atom:    9    charge:    2.8609    magn:    0.0088    constr:    0.0000
     atom:   10    charge:    2.8609    magn:    0.0008    constr:    0.0000
     atom:   11    charge:    2.8603    magn:    0.0080    constr:    0.0000
     atom:   12    charge:    2.8610    magn:    0.0001    constr:    0.0000
     atom:   13    charge:    2.8598    magn:    0.0043    constr:    0.0000
     atom:   14    charge:    2.8599    magn:    0.0003    constr:    0.0000
     atom:   15    charge:    2.8598    magn:    0.0005    constr:    0.0000
     atom:   16    charge:    0.8800    magn:    0.0004    constr:    0.0000
     atom:   17    charge:    0.8800    magn:    0.0001    constr:    0.0000
     atom:   18    charge:    0.8799    magn:    0.0001    constr:    0.0000
     atom:   19    charge:    0.8802    magn:    0.0003    constr:    0.0000
     atom:   20    charge:    0.8802    magn:    0.0003    constr:    0.0000
     atom:   21    charge:    0.8798    magn:    0.0004    constr:    0.0000
     atom:   22    charge:    2.8611    magn:    0.0043    constr:    0.0000
     atom:   23    charge:    0.8801    magn:    0.0002    constr:    0.0000
     atom:   24    charge:    0.8797    magn:    0.0005    constr:    0.0000
     atom:   25    charge:    0.8802    magn:    0.0005    constr:    0.0000
     atom:   26    charge:    2.8598    magn:    0.0001    constr:    0.0000
     atom:   27    charge:    2.8597    magn:    0.0005    constr:    0.0000
     atom:   28    charge:    2.8597    magn:    0.0004    constr:    0.0000
     atom:   29    charge:    2.8596    magn:    0.0004    constr:    0.0000
     atom:   30    charge:    2.8596    magn:    0.0088    constr:    0.0000
     atom:   31    charge:    2.8596    magn:    0.0008    constr:    0.0000
     atom:   32    charge:    0.8805    magn:    0.0005    constr:    0.0000
     atom:   33    charge:   11.9894    magn:    3.8630    constr:    0.0000
     atom:   34    charge:   11.9895    magn:    3.8631    constr:    0.0000

     total cpu time spent up to now is      529.5 secs

     End of self-consistent calculation

 ------ SPIN UP ------------


          k = 0.1667 0.2887 0.0000 ( 59267 PWs)   bands (ev):

   -73.0214 -72.9617 -44.7544 -44.3932 -44.3723 -44.3610 -44.3477 -44.3266
   -21.2347 -20.6497 -20.6427 -20.0919 -20.0851 -19.5764 -19.5704 -19.0876
   -18.6859 -18.6783 -18.4453 -18.4394 -18.1825 -18.0740 -18.0671 -17.8381
   -12.4720 -12.1941 -12.1903 -11.8092 -11.8060 -11.6466 -11.1809 -11.1762
   -10.3799 -10.3561 -10.1072 -10.1022  -9.5779  -9.5755  -8.8309  -8.8115
    -8.8102  -8.7547  -8.7498  -8.5846  -8.1853  -8.0518  -7.9957  -7.8169
    -7.8149  -7.4277  -7.4241  -7.2671  -7.2539  -7.1964  -7.1940  -6.9488
    -6.9435  -6.5654  -6.5188  -6.1420  -6.1406  -5.8625  -5.4067  -5.2898
    -5.2618  -5.1882  -4.8995  -4.8928  -4.4977  -4.3456  -4.3314  -3.9701
    -3.3575  -2.6104  -2.5855  -2.2320  -1.8298  -1.8048  -1.4729  -1.4364
    -1.2339  -1.1850  -1.1474  -0.4477   0.6047   0.9283   1.0280   1.2204
     1.3062   1.4850   1.5368   1.5834   1.6214   1.8080

          k = 0.1667-0.4811 0.0000 ( 59291 PWs)   bands (ev):

   -73.0214 -72.9617 -44.7544 -44.3932 -44.3723 -44.3610 -44.3477 -44.3267
   -21.1039 -20.9009 -20.7106 -20.1487 -19.7924 -19.4547 -19.3052 -19.1626
   -19.0027 -18.7670 -18.6278 -18.5336 -18.1356 -18.0797 -17.9102 -17.7123
   -12.3359 -12.1011 -12.0327 -11.8950 -11.6685 -11.6469 -11.5411 -10.9305
   -10.8779 -10.6116 -10.5119  -9.8482  -9.6815  -9.3245  -9.0990  -8.6597
    -8.6107  -8.5408  -8.3774  -8.3598  -8.1494  -8.1103  -8.0508  -8.0382
    -7.6756  -7.6113  -7.4819  -7.4625  -7.3459  -7.1593  -7.0561  -6.8509
    -6.6102  -6.3799  -6.1698  -6.1461  -5.9596  -5.9175  -5.7714  -5.7377
    -5.4395  -5.3867  -5.1995  -5.0326  -4.4344  -4.3391  -4.0782  -3.7576
    -3.3561  -2.6102  -2.5850  -2.2289  -1.8294  -1.8047  -1.4744  -1.4373
    -1.2358  -1.1844  -1.1483  -0.4516   0.5179   0.9378   1.0594   1.1147
     1.2668   1.2759   1.4116   1.8562   1.9145   2.1420

          k = 0.1667-0.0962 0.0000 ( 59226 PWs)   bands (ev):

   -73.0214 -72.9617 -44.7544 -44.3932 -44.3723 -44.3610 -44.3477 -44.3267
   -21.3012 -20.5229 -20.3344 -20.3268 -19.9772 -19.9675 -19.7947 -18.7176
   -18.7092 -18.3628 -18.3559 -18.3435 -18.2569 -18.2503 -18.0669 -18.0597
   -12.4948 -12.4909 -12.3965 -11.5697 -11.5637 -11.4144 -11.4089 -10.9147
   -10.9115  -9.9177  -9.9143  -9.6639  -9.3634  -9.3597  -9.2190  -9.2161
    -9.0307  -9.0283  -8.9147  -8.3122  -8.3095  -7.8890  -7.8874  -7.8717
    -7.8329  -7.7584  -7.6017  -7.5698  -7.1305  -7.0766  -6.9470  -6.8763
    -6.8732  -6.8412  -6.5194  -6.5160  -6.2456  -5.3438  -5.3041  -5.1313
    -5.0534  -4.7977  -4.7918  -4.7413  -4.6059  -4.5932  -4.3473  -4.3197
    -3.3594  -2.6105  -2.5858  -2.2353  -1.8314  -1.8049  -1.4717  -1.4355
    -1.2320  -1.1857  -1.1466  -0.4433   0.7232   0.8722   0.9934   1.2173
     1.2624   1.3649   1.5995   1.6073   1.7382   1.9984

          k =-0.5000-0.8660 0.0000 ( 59292 PWs)   bands (ev):

   -73.0214 -72.9617 -44.7544 -44.3933 -44.3723 -44.3611 -44.3478 -44.3266
   -21.0395 -21.0324 -20.4588 -20.4512 -19.4155 -19.4050 -19.4019 -19.3990
   -18.9818 -18.9761 -18.3145 -18.3080 -18.3057 -18.3004 -17.7831 -17.7760
   -12.0595 -12.0544 -12.0510 -12.0478 -11.8673 -11.8601 -11.3191 -11.3141
   -10.2238 -10.2193 -10.1232 -10.1213 -10.1177 -10.1145  -8.5928  -8.5367
    -8.5336  -8.5311  -8.5302  -8.5222  -7.8521  -7.8505  -7.8481  -7.8451
    -7.8139  -7.8089  -7.7736  -7.7398  -7.4781  -7.4745  -6.5998  -6.5945
    -6.3484  -6.3266  -6.2912  -6.2869  -6.1786  -6.1753  -5.7049  -5.6835
    -5.5338  -5.5297  -4.7240  -4.7134  -4.6921  -4.6670  -3.8799  -3.8570
    -3.3516  -2.6095  -2.5846  -2.2289  -1.8295  -1.8052  -1.4737  -1.4364
    -1.2441  -1.1882  -1.1499  -0.5565   0.6687   0.9736   1.1041   1.1561
     1.4322   1.6013   1.6043   1.6202   1.7475   1.8766

          k =-0.1667 0.2887 0.0000 ( 59267 PWs)   bands (ev):

   -73.0214 -72.9617 -44.7544 -44.3932 -44.3723 -44.3610 -44.3477 -44.3266
   -21.2347 -20.6496 -20.6427 -20.0919 -20.0851 -19.5763 -19.5704 -19.0876
   -18.6858 -18.6784 -18.4453 -18.4394 -18.1825 -18.0740 -18.0671 -17.8381
   -12.4720 -12.1941 -12.1903 -11.8092 -11.8060 -11.6466 -11.1808 -11.1762
   -10.3799 -10.3561 -10.1072 -10.1022  -9.5778  -9.5755  -8.8309  -8.8115
    -8.8102  -8.7547  -8.7499  -8.5846  -8.1853  -8.0518  -7.9957  -7.8169
    -7.8149  -7.4278  -7.4241  -7.2671  -7.2539  -7.1963  -7.1940  -6.9488
    -6.9436  -6.5654  -6.5188  -6.1419  -6.1406  -5.8625  -5.4068  -5.2898
    -5.2619  -5.1881  -4.8995  -4.8928  -4.4977  -4.3456  -4.3314  -3.9701
    -3.3575  -2.6104  -2.5855  -2.2320  -1.8298  -1.8048  -1.4729  -1.4364
    -1.2339  -1.1850  -1.1474  -0.4477   0.6047   0.9283   1.0280   1.2204
     1.3062   1.4850   1.5368   1.5834   1.6214   1.8081

          k = 0.3333 0.0000 0.0000 ( 59267 PWs)   bands (ev):

   -73.0214 -72.9617 -44.7544 -44.3932 -44.3723 -44.3611 -44.3477 -44.3267
   -21.2344 -20.6708 -20.6215 -20.0912 -20.0844 -19.5983 -19.5501 -19.0892
   -18.6994 -18.6608 -18.4462 -18.4399 -18.1786 -18.0937 -18.0529 -17.8374
   -12.4719 -12.1931 -12.1910 -11.8159 -11.8011 -11.6446 -11.1965 -11.1615
   -10.3788 -10.3562 -10.1166 -10.0927  -9.5831  -9.5693  -8.8372  -8.8110
    -8.8031  -8.7729  -8.7320  -8.5856  -8.1866  -8.0901  -7.9572  -7.8161
    -7.8141  -7.4321  -7.4191  -7.2786  -7.2374  -7.2048  -7.1857  -6.9487
    -6.9444  -6.6061  -6.4850  -6.1443  -6.1376  -5.8688  -5.4064  -5.2925
    -5.2483  -5.1886  -4.9112  -4.8841  -4.4888  -4.3680  -4.3210  -3.9689
    -3.3549  -2.6097  -2.5851  -2.2322  -1.8311  -1.8051  -1.4720  -1.4359
    -1.2389  -1.1876  -1.1484  -0.5208   0.7227   0.9063   1.2007   1.2599
     1.3141   1.4617   1.5534   1.5757   1.6139   1.8538

          k =-0.1667-0.4811 0.0000 ( 59291 PWs)   bands (ev):

   -73.0214 -72.9617 -44.7544 -44.3932 -44.3723 -44.3610 -44.3477 -44.3267
   -21.1039 -20.9009 -20.7106 -20.1487 -19.7924 -19.4547 -19.3052 -19.1626
   -19.0027 -18.7670 -18.6278 -18.5336 -18.1356 -18.0797 -17.9102 -17.7123
   -12.3359 -12.1011 -12.0327 -11.8949 -11.6685 -11.6469 -11.5411 -10.9305
   -10.8779 -10.6116 -10.5119  -9.8481  -9.6815  -9.3246  -9.0990  -8.6597
    -8.6106  -8.5408  -8.3774  -8.3598  -8.1494  -8.1103  -8.0509  -8.0382
    -7.6756  -7.6114  -7.4819  -7.4625  -7.3459  -7.1592  -7.0560  -6.8509
    -6.6103  -6.3799  -6.1698  -6.1461  -5.9596  -5.9174  -5.7714  -5.7377
    -5.4396  -5.3867  -5.1995  -5.0326  -4.4344  -4.3391  -4.0782  -3.7576
    -3.3561  -2.6102  -2.5850  -2.2289  -1.8294  -1.8047  -1.4744  -1.4373
    -1.2358  -1.1844  -1.1483  -0.4516   0.5179   0.9378   1.0594   1.1147
     1.2668   1.2759   1.4116   1.8562   1.9145   2.1421

          k = 0.5000-0.0962 0.0000 ( 59291 PWs)   bands (ev):

   -73.0214 -72.9617 -44.7544 -44.3932 -44.3723 -44.3610 -44.3477 -44.3267
   -21.1017 -20.9069 -20.7068 -20.1471 -19.7926 -19.4563 -19.3098 -19.1586
   -19.0035 -18.7678 -18.6195 -18.5386 -18.1252 -18.0935 -17.9081 -17.7120
   -12.3353 -12.1012 -12.0312 -11.8982 -11.6786 -11.6346 -11.5431 -10.9305
   -10.8764 -10.6104 -10.5138  -9.8460  -9.6821  -9.3255  -9.0985  -8.6514
    -8.6109  -8.5393  -8.3866  -8.3792  -8.1478  -8.0940  -8.0621  -8.0282
    -7.6727  -7.6119  -7.4811  -7.4635  -7.3398  -7.1604  -7.0564  -6.8507
    -6.6104  -6.3889  -6.1837  -6.1454  -5.9476  -5.9165  -5.7709  -5.7383
    -5.4407  -5.3871  -5.1790  -5.0453  -4.4138  -4.3638  -4.0766  -3.7575
    -3.3518  -2.6095  -2.5846  -2.2290  -1.8301  -1.8052  -1.4737  -1.4364
    -1.2440  -1.1882  -1.1499  -0.5561   0.6615   0.9505   1.0895   1.1998
     1.3095   1.3369   1.6181   1.7928   1.9223   1.9514

          k =-0.3333-0.3849 0.0000 ( 59291 PWs)   bands (ev):

   -73.0214 -72.9617 -44.7544 -44.3932 -44.3723 -44.3610 -44.3477 -44.3267
   -21.1024 -20.9048 -20.7083 -20.1469 -19.7942 -19.4547 -19.3057 -19.1615
   -19.0057 -18.7664 -18.6208 -18.5379 -18.1273 -18.0910 -17.9081 -17.7121
   -12.3356 -12.1000 -12.0328 -11.8976 -11.6690 -11.6451 -11.5422 -10.9305
   -10.8759 -10.6098 -10.5147  -9.8470  -9.6822  -9.3246  -9.0991  -8.6540
    -8.6101  -8.5412  -8.3784  -8.3757  -8.1492  -8.1004  -8.0509  -8.0399
    -7.6729  -7.6104  -7.4871  -7.4583  -7.3387  -7.1606  -7.0568  -6.8582
    -6.6088  -6.3808  -6.1696  -6.1471  -5.9588  -5.9158  -5.7712  -5.7471
    -5.4404  -5.3825  -5.1793  -5.0455  -4.4170  -4.3611  -4.0759  -3.7576
    -3.3531  -2.6099  -2.5848  -2.2289  -1.8295  -1.8051  -1.4742  -1.4367
    -1.2413  -1.1869  -1.1494  -0.5243   0.6108   0.9591   1.1034   1.1570
     1.2261   1.4051   1.4966   1.8394   1.9349   1.9740

          k = 0.5000 0.0962 0.0000 ( 59291 PWs)   bands (ev):

   -73.0214 -72.9617 -44.7544 -44.3932 -44.3723 -44.3610 -44.3477 -44.3267
   -21.1017 -20.9069 -20.7068 -20.1471 -19.7926 -19.4563 -19.3098 -19.1586
   -19.0035 -18.7678 -18.6195 -18.5386 -18.1252 -18.0935 -17.9080 -17.7120
   -12.3353 -12.1013 -12.0311 -11.8982 -11.6786 -11.6346 -11.5431 -10.9304
   -10.8764 -10.6104 -10.5139  -9.8460  -9.6822  -9.3254  -9.0985  -8.6514
    -8.6109  -8.5394  -8.3866  -8.3792  -8.1478  -8.0940  -8.0621  -8.0282
    -7.6727  -7.6118  -7.4811  -7.4636  -7.3398  -7.1605  -7.0563  -6.8507
    -6.6103  -6.3889  -6.1837  -6.1453  -5.9476  -5.9165  -5.7710  -5.7383
    -5.4407  -5.3872  -5.1790  -5.0452  -4.4138  -4.3638  -4.0767  -3.7575
    -3.3518  -2.6095  -2.5846  -2.2290  -1.8301  -1.8052  -1.4737  -1.4364
    -1.2440  -1.1882  -1.1499  -0.5561   0.6615   0.9505   1.0895   1.1999
     1.3095   1.3368   1.6181   1.7929   1.9220   1.9514

          k =-0.3333 0.3849 0.0000 ( 59291 PWs)   bands (ev):

   -73.0214 -72.9617 -44.7544 -44.3932 -44.3723 -44.3610 -44.3477 -44.3267
   -21.1024 -20.9048 -20.7083 -20.1469 -19.7942 -19.4547 -19.3057 -19.1615
   -19.0057 -18.7664 -18.6207 -18.5378 -18.1273 -18.0909 -17.9082 -17.7121
   -12.3355 -12.1000 -12.0329 -11.8976 -11.6690 -11.6451 -11.5422 -10.9305
   -10.8759 -10.6098 -10.5147  -9.8470  -9.6822  -9.3245  -9.0991  -8.6540
    -8.6101  -8.5411  -8.3784  -8.3757  -8.1493  -8.1004  -8.0508  -8.0400
    -7.6729  -7.6104  -7.4871  -7.4583  -7.3387  -7.1605  -7.0569  -6.8582
    -6.6089  -6.3808  -6.1695  -6.1471  -5.9588  -5.9159  -5.7712  -5.7471
    -5.4403  -5.3825  -5.1793  -5.0455  -4.4171  -4.3611  -4.0758  -3.7575
    -3.3531  -2.6099  -2.5848  -2.2289  -1.8295  -1.8051  -1.4742  -1.4367
    -1.2413  -1.1869  -1.1494  -0.5243   0.6108   0.9591   1.1034   1.1570
     1.2261   1.4051   1.4966   1.8394   1.9348   1.9742

          k =-0.1667-0.0962 0.0000 ( 59226 PWs)   bands (ev):

   -73.0214 -72.9617 -44.7544 -44.3932 -44.3723 -44.3610 -44.3477 -44.3267
   -21.3012 -20.5229 -20.3344 -20.3268 -19.9772 -19.9675 -19.7947 -18.7177
   -18.7092 -18.3628 -18.3559 -18.3435 -18.2569 -18.2503 -18.0669 -18.0597
   -12.4948 -12.4910 -12.3964 -11.5697 -11.5637 -11.4144 -11.4089 -10.9147
   -10.9115  -9.9177  -9.9144  -9.6638  -9.3633  -9.3597  -9.2190  -9.2162
    -9.0306  -9.0284  -8.9147  -8.3122  -8.3095  -7.8890  -7.8874  -7.8717
    -7.8329  -7.7584  -7.6016  -7.5698  -7.1305  -7.0766  -6.9470  -6.8763
    -6.8732  -6.8412  -6.5194  -6.5160  -6.2456  -5.3438  -5.3041  -5.1312
    -5.0535  -4.7977  -4.7917  -4.7414  -4.6058  -4.5932  -4.3473  -4.3197
    -3.3594  -2.6105  -2.5858  -2.2353  -1.8314  -1.8049  -1.4717  -1.4355
    -1.2320  -1.1857  -1.1466  -0.4433   0.7232   0.8722   0.9934   1.2173
     1.2624   1.3650   1.5996   1.6074   1.7381   1.9986

          k =-0.0000-0.1925 0.0000 ( 59226 PWs)   bands (ev):

   -73.0214 -72.9617 -44.7544 -44.3932 -44.3723 -44.3610 -44.3478 -44.3266
   -21.3013 -20.5189 -20.3390 -20.3293 -19.9734 -19.9652 -19.7975 -18.7164
   -18.7076 -18.3732 -18.3635 -18.3423 -18.2453 -18.2440 -18.0692 -18.0614
   -12.4935 -12.4923 -12.3963 -11.5708 -11.5644 -11.4118 -11.4085 -10.9151
   -10.9128  -9.9172  -9.9144  -9.6644  -9.3645  -9.3581  -9.2185  -9.2167
    -9.0297  -9.0296  -8.9152  -8.3117  -8.3089  -7.8884  -7.8865  -7.8577
    -7.8323  -7.7596  -7.6106  -7.5902  -7.0959  -7.0880  -6.9458  -6.8772
    -6.8736  -6.8505  -6.5195  -6.5155  -6.2459  -5.3260  -5.3147  -5.1316
    -5.0529  -4.8312  -4.7911  -4.7413  -4.5860  -4.5801  -4.3408  -4.3337
    -3.3607  -2.6109  -2.5860  -2.2352  -1.8308  -1.8048  -1.4722  -1.4359
    -1.2297  -1.1845  -1.1461  -0.4001   0.6477   0.8786   0.9282   1.1843
     1.2633   1.3864   1.5915   1.6089   1.7340   1.9905

          k = 0.5000-0.8660 0.0000 ( 59292 PWs)   bands (ev):

   -73.0214 -72.9617 -44.7544 -44.3933 -44.3723 -44.3611 -44.3478 -44.3266
   -21.0395 -21.0325 -20.4588 -20.4512 -19.4155 -19.4050 -19.4018 -19.3990
   -18.9817 -18.9762 -18.3144 -18.3080 -18.3058 -18.3005 -17.7831 -17.7760
   -12.0595 -12.0543 -12.0510 -12.0478 -11.8673 -11.8600 -11.3191 -11.3142
   -10.2238 -10.2193 -10.1232 -10.1213 -10.1177 -10.1145  -8.5928  -8.5366
    -8.5335  -8.5312  -8.5303  -8.5222  -7.8520  -7.8505  -7.8480  -7.8451
    -7.8140  -7.8089  -7.7736  -7.7398  -7.4781  -7.4746  -6.5997  -6.5944
    -6.3484  -6.3266  -6.2912  -6.2869  -6.1785  -6.1753  -5.7049  -5.6835
    -5.5338  -5.5298  -4.7240  -4.7133  -4.6922  -4.6670  -3.8799  -3.8570
    -3.3516  -2.6095  -2.5846  -2.2289  -1.8295  -1.8052  -1.4737  -1.4364
    -1.2441  -1.1882  -1.1499  -0.5565   0.6686   0.9736   1.1041   1.1561
     1.4322   1.6013   1.6042   1.6202   1.7475   1.8765

          k =-1.0000 0.0000 0.0000 ( 59292 PWs)   bands (ev):

   -73.0214 -72.9617 -44.7544 -44.3933 -44.3723 -44.3611 -44.3477 -44.3266
   -21.0596 -21.0101 -20.4616 -20.4522 -19.4097 -19.4072 -19.4060 -19.3937
   -18.9984 -18.9607 -18.3469 -18.3305 -18.2779 -18.2741 -17.7841 -17.7763
   -12.0818 -12.0726 -12.0306 -12.0242 -11.8680 -11.8601 -11.3368 -11.2986
   -10.2301 -10.2239 -10.1206 -10.1203 -10.1136 -10.1123  -8.6227  -8.5565
    -8.5485  -8.5124  -8.5115  -8.4831  -7.8585  -7.8573  -7.8479  -7.8462
    -7.8048  -7.8046  -7.7715  -7.7569  -7.4981  -7.4559  -6.5991  -6.5939
    -6.3317  -6.3257  -6.2963  -6.2824  -6.1941  -6.1622  -5.7192  -5.6747
    -5.5512  -5.5122  -4.7908  -4.7313  -4.6460  -4.6327  -3.8726  -3.8644
    -3.3576  -2.6102  -2.5851  -2.2289  -1.8294  -1.8045  -1.4742  -1.4377
    -1.2330  -1.1831  -1.1478  -0.4097   0.4799   0.9264   0.9895   1.1211
     1.2249   1.4967   1.6106   1.6281   1.6484   1.9265

 ------ SPIN DOWN ----------


          k = 0.1667 0.2887 0.0000 ( 59267 PWs)   bands (ev):

   -68.8715 -68.8064 -40.7704 -40.3377 -40.2444 -40.2120 -40.1937 -40.1610
   -21.2301 -20.6437 -20.6398 -20.0872 -20.0807 -19.5704 -19.5675 -19.0829
   -18.6790 -18.6750 -18.4406 -18.4348 -18.1768 -18.0688 -18.0640 -17.8333
   -12.4691 -12.1911 -12.1871 -11.8061 -11.8036 -11.6441 -11.1770 -11.1740
   -10.3766 -10.3529 -10.1028 -10.0999  -9.5743  -9.5730  -8.8132  -8.8075
    -8.8017  -8.7510  -8.7479  -8.5818  -8.1826  -8.0218  -7.9871  -7.8140
    -7.8122  -7.4230  -7.4213  -7.2468  -7.2365  -7.1931  -7.1918  -6.9460
    -6.9407  -6.5390  -6.5113  -6.1386  -6.1380  -5.8434  -5.4032  -5.2622
    -5.2479  -5.1851  -4.8840  -4.8767  -4.4767  -4.3289  -4.3201  -3.9536
    -1.5528   0.4846   0.5542   0.6230   0.6725   1.0835   1.1771   1.2839
     1.3515   1.4618   1.5338   1.5922   1.6354   1.7073   1.7684   1.8811
     2.0699   2.1210   2.1798   2.2505   2.3175   2.3612

          k = 0.1667-0.4811 0.0000 ( 59291 PWs)   bands (ev):

   -68.8715 -68.8064 -40.7705 -40.3377 -40.2444 -40.2120 -40.1937 -40.1611
   -21.0989 -20.8970 -20.7061 -20.1440 -19.7880 -19.4501 -19.3006 -19.1579
   -18.9980 -18.7626 -18.6216 -18.5299 -18.1286 -18.0772 -17.9054 -17.7074
   -12.3330 -12.0980 -12.0300 -11.8922 -11.6660 -11.6439 -11.5382 -10.9273
   -10.8746 -10.6081 -10.5090  -9.8446  -9.6785  -9.3211  -9.0960  -8.6318
    -8.6077  -8.5374  -8.3747  -8.3452  -8.1466  -8.0920  -8.0479  -8.0357
    -7.6725  -7.6085  -7.4789  -7.4600  -7.3258  -7.1557  -7.0532  -6.8325
    -6.6065  -6.3617  -6.1500  -6.1431  -5.9435  -5.9138  -5.7683  -5.7189
    -5.4366  -5.3703  -5.1729  -5.0218  -4.4093  -4.3317  -4.0626  -3.7415
    -1.5450   0.4762   0.5522   0.6302   0.6830   1.0127   1.0872   1.1899
     1.2493   1.3640   1.6147   1.6493   1.6741   1.8072   1.8420   2.1169
     2.1468   2.1713   2.1950   2.2473   2.3075   2.3607

          k = 0.1667-0.0962 0.0000 ( 59226 PWs)   bands (ev):

   -68.8715 -68.8064 -40.7704 -40.3377 -40.2444 -40.2120 -40.1937 -40.1611
   -21.2967 -20.5178 -20.3298 -20.3232 -19.9714 -19.9638 -19.7908 -18.7116
   -18.7050 -18.3572 -18.3511 -18.3391 -18.2519 -18.2456 -18.0621 -18.0562
   -12.4919 -12.4879 -12.3935 -11.5667 -11.5614 -11.4114 -11.4059 -10.9113
   -10.9089  -9.9143  -9.9116  -9.6604  -9.3603  -9.3567  -9.2150  -9.2130
    -9.0276  -9.0256  -8.8929  -8.3083  -8.3061  -7.8861  -7.8843  -7.8463
    -7.8283  -7.7558  -7.5819  -7.5589  -7.1000  -7.0658  -6.9440  -6.8733
    -6.8708  -6.8295  -6.5162  -6.5134  -6.2427  -5.3153  -5.2910  -5.1280
    -5.0502  -4.7773  -4.7712  -4.7260  -4.5892  -4.5798  -4.3270  -4.3097
    -1.5606   0.4947   0.5541   0.6187   0.6646   1.0496   1.1171   1.2602
     1.4179   1.5133   1.5797   1.6820   1.7040   1.7204   1.8304   1.9379
     1.9689   2.0424   2.1231   2.2568   2.2737   2.3553

          k =-0.5000-0.8660 0.0000 ( 59292 PWs)   bands (ev):

   -68.8715 -68.8064 -40.7704 -40.3377 -40.2445 -40.2120 -40.1937 -40.1610
   -21.0332 -21.0296 -20.4540 -20.4475 -19.4089 -19.4002 -19.3987 -19.3945
   -18.9757 -18.9733 -18.3078 -18.3027 -18.2996 -18.2993 -17.7776 -17.7721
   -12.0555 -12.0495 -12.0491 -12.0466 -11.8642 -11.8580 -11.3152 -11.3119
   -10.2202 -10.2165 -10.1194 -10.1176 -10.1148 -10.1119  -8.5564  -8.5326
    -8.5294  -8.5290  -8.5281  -8.5146  -7.8488  -7.8473  -7.8451  -7.8428
    -7.8085  -7.8050  -7.7534  -7.7289  -7.4748  -7.4726  -6.5960  -6.5921
    -6.3163  -6.3000  -6.2796  -6.2768  -6.1748  -6.1725  -5.6839  -5.6729
    -5.5298  -5.5276  -4.6928  -4.6912  -4.6791  -4.6647  -3.8595  -3.8451
    -1.5293   0.2658   0.5611   0.6272   0.6867   1.0122   1.1130   1.2975
     1.5023   1.5513   1.5849   1.6276   1.7054   1.7113   1.8775   1.9206
     1.9712   2.1385   2.2216   2.2735   2.3120   2.3730

          k =-0.1667 0.2887 0.0000 ( 59267 PWs)   bands (ev):

   -68.8715 -68.8064 -40.7704 -40.3377 -40.2444 -40.2120 -40.1937 -40.1610
   -21.2301 -20.6437 -20.6398 -20.0872 -20.0807 -19.5704 -19.5675 -19.0829
   -18.6789 -18.6750 -18.4406 -18.4348 -18.1768 -18.0688 -18.0640 -17.8333
   -12.4691 -12.1911 -12.1871 -11.8061 -11.8036 -11.6441 -11.1769 -11.1740
   -10.3766 -10.3529 -10.1028 -10.0999  -9.5742  -9.5730  -8.8131  -8.8074
    -8.8017  -8.7510  -8.7480  -8.5817  -8.1826  -8.0218  -7.9871  -7.8140
    -7.8122  -7.4231  -7.4213  -7.2468  -7.2365  -7.1930  -7.1918  -6.9461
    -6.9408  -6.5390  -6.5113  -6.1386  -6.1380  -5.8434  -5.4033  -5.2622
    -5.2479  -5.1850  -4.8840  -4.8767  -4.4768  -4.3289  -4.3202  -3.9536
    -1.5528   0.4846   0.5542   0.6230   0.6725   1.0835   1.1771   1.2839
     1.3515   1.4618   1.5338   1.5922   1.6354   1.7073   1.7684   1.8811
     2.0700   2.1210   2.1794   2.2498   2.3172   2.3611

          k = 0.3333 0.0000 0.0000 ( 59267 PWs)   bands (ev):

   -68.8715 -68.8064 -40.7704 -40.3377 -40.2444 -40.2120 -40.1937 -40.1611
   -21.2298 -20.6639 -20.6195 -20.0869 -20.0800 -19.5912 -19.5480 -19.0842
   -18.6920 -18.6588 -18.4410 -18.4355 -18.1737 -18.0863 -18.0509 -17.8328
   -12.4690 -12.1903 -12.1876 -11.8130 -11.7984 -11.6424 -11.1920 -11.1597
   -10.3756 -10.3531 -10.1121 -10.0907  -9.5795  -9.5670  -8.8191  -8.8074
    -8.7947  -8.7686  -8.7307  -8.5826  -8.1836  -8.0560  -7.9528  -7.8134
    -7.8116  -7.4273  -7.4166  -7.2539  -7.2260  -7.2011  -7.1839  -6.9458
    -6.9416  -6.5743  -6.4805  -6.1410  -6.1350  -5.8474  -5.4029  -5.2706
    -5.2327  -5.1855  -4.8907  -4.8719  -4.4711  -4.3488  -4.3078  -3.9529
    -1.5427   0.3366   0.5621   0.6238   0.6807   1.0251   1.1606   1.3964
     1.4515   1.5269   1.5317   1.6250   1.7007   1.7228   1.7392   1.9643
     2.0138   2.1170   2.1612   2.2528   2.3506   2.4136

          k =-0.1667-0.4811 0.0000 ( 59291 PWs)   bands (ev):

   -68.8715 -68.8064 -40.7705 -40.3377 -40.2444 -40.2120 -40.1937 -40.1611
   -21.0989 -20.8970 -20.7061 -20.1440 -19.7880 -19.4501 -19.3006 -19.1579
   -18.9980 -18.7626 -18.6216 -18.5299 -18.1286 -18.0772 -17.9054 -17.7074
   -12.3330 -12.0980 -12.0300 -11.8922 -11.6660 -11.6439 -11.5382 -10.9273
   -10.8746 -10.6081 -10.5090  -9.8445  -9.6785  -9.3211  -9.0961  -8.6318
    -8.6076  -8.5374  -8.3747  -8.3452  -8.1466  -8.0920  -8.0480  -8.0357
    -7.6725  -7.6085  -7.4789  -7.4600  -7.3258  -7.1557  -7.0532  -6.8325
    -6.6066  -6.3617  -6.1500  -6.1432  -5.9435  -5.9137  -5.7683  -5.7189
    -5.4367  -5.3703  -5.1729  -5.0218  -4.4093  -4.3317  -4.0626  -3.7415
    -1.5450   0.4762   0.5522   0.6302   0.6830   1.0127   1.0872   1.1899
     1.2493   1.3640   1.6147   1.6493   1.6740   1.8072   1.8420   2.1168
     2.1467   2.1713   2.1950   2.2473   2.3079   2.3601

          k = 0.5000-0.0962 0.0000 ( 59291 PWs)   bands (ev):

   -68.8715 -68.8064 -40.7705 -40.3377 -40.2444 -40.2120 -40.1937 -40.1611
   -21.0971 -20.9020 -20.7029 -20.1427 -19.7881 -19.4514 -19.3044 -19.1547
   -18.9986 -18.7632 -18.6150 -18.5339 -18.1201 -18.0883 -17.9038 -17.7072
   -12.3324 -12.0983 -12.0285 -11.8951 -11.6752 -11.6327 -11.5400 -10.9273
   -10.8732 -10.6071 -10.5107  -9.8427  -9.6791  -9.3219  -9.0956  -8.6261
    -8.6078  -8.5362  -8.3774  -8.3625  -8.1452  -8.0811  -8.0580  -8.0267
    -7.6700  -7.6090  -7.4781  -7.4610  -7.3217  -7.1568  -7.0535  -6.8325
    -6.6066  -6.3667  -6.1599  -6.1425  -5.9355  -5.9130  -5.7679  -5.7195
    -5.4376  -5.3706  -5.1593  -5.0303  -4.3941  -4.3498  -4.0611  -3.7413
    -1.5293   0.2674   0.5589   0.6281   0.6890   1.0060   1.0712   1.2044
     1.3534   1.5137   1.6437   1.6804   1.7222   1.8471   1.9717   2.0183
     2.0950   2.1610   2.2189   2.2664   2.3267   2.3791

          k =-0.3333-0.3849 0.0000 ( 59291 PWs)   bands (ev):

   -68.8715 -68.8064 -40.7704 -40.3377 -40.2445 -40.2120 -40.1937 -40.1611
   -21.0977 -20.9002 -20.7042 -20.1426 -19.7894 -19.4501 -19.3011 -19.1570
   -19.0005 -18.7620 -18.6160 -18.5333 -18.1217 -18.0864 -17.9038 -17.7073
   -12.3327 -12.0971 -12.0301 -11.8945 -11.6666 -11.6422 -11.5391 -10.9272
   -10.8728 -10.6065 -10.5115  -9.8435  -9.6792  -9.3212  -9.0961  -8.6277
    -8.6072  -8.5376  -8.3755  -8.3562  -8.1465  -8.0853  -8.0479  -8.0372
    -7.6703  -7.6077  -7.4834  -7.4565  -7.3211  -7.1570  -7.0538  -6.8372
    -6.6052  -6.3621  -6.1504  -6.1438  -5.9423  -5.9125  -5.7682  -5.7253
    -5.4374  -5.3678  -5.1598  -5.0302  -4.3962  -4.3478  -4.0607  -3.7414
    -1.5346   0.3266   0.5554   0.6281   0.6838   0.9979   1.1130   1.2464
     1.2742   1.4067   1.6231   1.6706   1.7543   1.9371   1.9733   2.0178
     2.0763   2.1003   2.1980   2.2274   2.3393   2.3683

          k = 0.5000 0.0962 0.0000 ( 59291 PWs)   bands (ev):

   -68.8715 -68.8064 -40.7705 -40.3377 -40.2444 -40.2120 -40.1937 -40.1611
   -21.0971 -20.9020 -20.7029 -20.1427 -19.7881 -19.4514 -19.3044 -19.1547
   -18.9986 -18.7632 -18.6150 -18.5339 -18.1201 -18.0883 -17.9037 -17.7072
   -12.3324 -12.0983 -12.0285 -11.8951 -11.6752 -11.6327 -11.5400 -10.9272
   -10.8732 -10.6071 -10.5108  -9.8428  -9.6792  -9.3218  -9.0956  -8.6261
    -8.6078  -8.5362  -8.3774  -8.3625  -8.1452  -8.0811  -8.0580  -8.0266
    -7.6701  -7.6089  -7.4782  -7.4610  -7.3217  -7.1569  -7.0534  -6.8325
    -6.6066  -6.3667  -6.1599  -6.1425  -5.9355  -5.9130  -5.7680  -5.7195
    -5.4377  -5.3706  -5.1593  -5.0303  -4.3941  -4.3498  -4.0611  -3.7413
    -1.5293   0.2674   0.5589   0.6281   0.6890   1.0060   1.0712   1.2044
     1.3533   1.5137   1.6437   1.6804   1.7222   1.8470   1.9717   2.0183
     2.0951   2.1610   2.2188   2.2663   2.3269   2.3793

          k =-0.3333 0.3849 0.0000 ( 59291 PWs)   bands (ev):

   -68.8715 -68.8064 -40.7704 -40.3377 -40.2445 -40.2120 -40.1937 -40.1611
   -21.0977 -20.9002 -20.7042 -20.1426 -19.7894 -19.4502 -19.3011 -19.1570
   -19.0005 -18.7621 -18.6159 -18.5333 -18.1217 -18.0864 -17.9038 -17.7073
   -12.3326 -12.0971 -12.0301 -11.8945 -11.6666 -11.6423 -11.5391 -10.9273
   -10.8728 -10.6065 -10.5115  -9.8436  -9.6792  -9.3212  -9.0961  -8.6277
    -8.6072  -8.5376  -8.3756  -8.3561  -8.1465  -8.0853  -8.0478  -8.0372
    -7.6702  -7.6077  -7.4834  -7.4564  -7.3211  -7.1569  -7.0539  -6.8372
    -6.6053  -6.3621  -6.1504  -6.1439  -5.9423  -5.9126  -5.7682  -5.7253
    -5.4373  -5.3677  -5.1598  -5.0302  -4.3962  -4.3478  -4.0607  -3.7414
    -1.5346   0.3266   0.5554   0.6281   0.6838   0.9979   1.1130   1.2464
     1.2742   1.4067   1.6231   1.6706   1.7542   1.9371   1.9734   2.0178
     2.0762   2.1003   2.1982   2.2274   2.3398   2.3686

          k =-0.1667-0.0962 0.0000 ( 59226 PWs)   bands (ev):

   -68.8715 -68.8064 -40.7704 -40.3377 -40.2444 -40.2120 -40.1937 -40.1611
   -21.2967 -20.5178 -20.3298 -20.3232 -19.9714 -19.9638 -19.7908 -18.7116
   -18.7050 -18.3572 -18.3511 -18.3391 -18.2519 -18.2456 -18.0621 -18.0562
   -12.4920 -12.4879 -12.3934 -11.5666 -11.5614 -11.4114 -11.4059 -10.9113
   -10.9089  -9.9143  -9.9116  -9.6604  -9.3602  -9.3566  -9.2150  -9.2130
    -9.0276  -9.0256  -8.8929  -8.3083  -8.3061  -7.8861  -7.8843  -7.8463
    -7.8282  -7.7558  -7.5819  -7.5589  -7.1000  -7.0658  -6.9441  -6.8733
    -6.8708  -6.8295  -6.5162  -6.5134  -6.2428  -5.3153  -5.2910  -5.1279
    -5.0503  -4.7772  -4.7712  -4.7260  -4.5892  -4.5798  -4.3271  -4.3097
    -1.5606   0.4947   0.5541   0.6187   0.6646   1.0496   1.1170   1.2602
     1.4179   1.5134   1.5797   1.6821   1.7040   1.7204   1.8304   1.9379
     1.9689   2.0424   2.1229   2.2572   2.2736   2.3553

          k =-0.0000-0.1925 0.0000 ( 59226 PWs)   bands (ev):

   -68.8715 -68.8064 -40.7704 -40.3377 -40.2444 -40.2120 -40.1937 -40.1610
   -21.2968 -20.5145 -20.3339 -20.3249 -19.9690 -19.9611 -19.7931 -18.7113
   -18.7030 -18.3656 -18.3575 -18.3376 -18.2424 -18.2409 -18.0645 -18.0569
   -12.4910 -12.4890 -12.3933 -11.5678 -11.5617 -11.4093 -11.4054 -10.9119
   -10.9097  -9.9143  -9.9112  -9.6609  -9.3611  -9.3555  -9.2149  -9.2132
    -9.0267  -9.0267  -8.8932  -8.3082  -8.3053  -7.8856  -7.8840  -7.8387
    -7.8255  -7.7567  -7.5882  -7.5723  -7.0801  -7.0701  -6.9429  -6.8742
    -6.8709  -6.8361  -6.5166  -6.5128  -6.2430  -5.3065  -5.2949  -5.1283
    -5.0498  -4.7989  -4.7720  -4.7252  -4.5766  -4.5708  -4.3257  -4.3158
    -1.5655   0.5438   0.6118   0.6139   0.6607   1.0946   1.1336   1.1588
     1.3504   1.5256   1.5387   1.5843   1.6984   1.7216   1.8234   1.9006
     2.0337   2.0702   2.1041   2.2240   2.2968   2.3606

          k = 0.5000-0.8660 0.0000 ( 59292 PWs)   bands (ev):

   -68.8715 -68.8064 -40.7704 -40.3377 -40.2445 -40.2120 -40.1937 -40.1610
   -21.0331 -21.0296 -20.4540 -20.4475 -19.4089 -19.4002 -19.3987 -19.3945
   -18.9757 -18.9733 -18.3077 -18.3027 -18.2996 -18.2993 -17.7776 -17.7721
   -12.0554 -12.0495 -12.0491 -12.0467 -11.8642 -11.8580 -11.3151 -11.3120
   -10.2203 -10.2166 -10.1194 -10.1176 -10.1148 -10.1119  -8.5564  -8.5325
    -8.5294  -8.5291  -8.5281  -8.5146  -7.8487  -7.8473  -7.8451  -7.8428
    -7.8086  -7.8051  -7.7534  -7.7289  -7.4748  -7.4727  -6.5960  -6.5920
    -6.3163  -6.3000  -6.2796  -6.2768  -6.1747  -6.1725  -5.6839  -5.6730
    -5.5299  -5.5277  -4.6928  -4.6911  -4.6792  -4.6647  -3.8595  -3.8451
    -1.5293   0.2658   0.5611   0.6272   0.6867   1.0122   1.1130   1.2976
     1.5023   1.5513   1.5848   1.6276   1.7053   1.7113   1.8775   1.9206
     1.9712   2.1385   2.2216   2.2733   2.3116   2.3730

          k =-1.0000 0.0000 0.0000 ( 59292 PWs)   bands (ev):

   -68.8715 -68.8064 -40.7705 -40.3377 -40.2445 -40.2120 -40.1937 -40.1610
   -21.0528 -21.0081 -20.4567 -20.4479 -19.4053 -19.4021 -19.4015 -19.3896
   -18.9914 -18.9587 -18.3373 -18.3225 -18.2768 -18.2732 -17.7791 -17.7715
   -12.0779 -12.0671 -12.0295 -12.0231 -11.8653 -11.8577 -11.3321 -11.2968
   -10.2264 -10.2200 -10.1172 -10.1168 -10.1109 -10.1100  -8.5855  -8.5519
    -8.5443  -8.5115  -8.5099  -8.4788  -7.8549  -7.8539  -7.8447  -7.8433
    -7.8012  -7.7999  -7.7529  -7.7394  -7.4938  -7.4547  -6.5961  -6.5910
    -6.3079  -6.2995  -6.2839  -6.2702  -6.1895  -6.1600  -5.6991  -5.6611
    -5.5462  -5.5110  -4.7510  -4.7060  -4.6428  -4.6308  -3.8577  -3.8475
    -1.5501   0.5539   0.5772   0.6323   0.6843   1.0477   1.0556   1.1771
     1.3773   1.3775   1.6177   1.6255   1.6454   1.6597   1.7399   1.7870
     2.1113   2.2156   2.2300   2.2746   2.2798   2.3659

     the Fermi energy is    -1.1224 ev

!    total energy              =   -1133.79687294 Ry

     total all-electron energy =     -6753.472576 Ry
     estimated scf accuracy    <       0.00000004 Ry
     smearing contrib. (-TS)   =      -0.00000000 Ry
     internal energy E=F+TS    =   -1133.79687294 Ry

     The total energy is F=E-TS. E is the sum of the following terms:
     one-electron contribution =   -3976.21334745 Ry
     hartree contribution      =    2016.24416018 Ry
     xc contribution           =    -186.07686516 Ry
     ewald contribution        =    1371.62274270 Ry
     DFT-D3 Dispersion         =      -0.12187439 Ry
     one-center paw contrib.   =    -359.25168882 Ry

     total magnetization       =    10.00 Bohr mag/cell
     absolute magnetization    =    10.01 Bohr mag/cell

     convergence has been achieved in  14 iterations

     Writing output data file ./mytmp/Crdimer0.12-0.2.save/
 
     init_run     :     18.32s CPU     19.26s WALL (       1 calls)
     electrons    :    477.95s CPU    510.12s WALL (       1 calls)

     Called by init_run:
     wfcinit      :     13.51s CPU     14.05s WALL (       1 calls)
     potinit      :      1.53s CPU      1.60s WALL (       1 calls)
     hinit0       :      1.55s CPU      1.62s WALL (       1 calls)

     Called by electrons:
     c_bands      :    380.82s CPU    404.44s WALL (      14 calls)
     sum_band     :     75.01s CPU     80.28s WALL (      14 calls)
     v_of_rho     :      4.57s CPU      4.93s WALL (      15 calls)
     newd         :      9.48s CPU     12.47s WALL (      15 calls)
     PAW_pot      :      7.40s CPU      7.48s WALL (      15 calls)
     mix_rho      :      0.99s CPU      1.01s WALL (      14 calls)

     Called by c_bands:
     init_us_2    :      5.03s CPU      5.07s WALL (     870 calls)
     cegterg      :    368.45s CPU    391.99s WALL (     420 calls)

     Called by *egterg:
     cdiaghg      :     23.90s CPU     37.84s WALL (    2665 calls)
     h_psi        :    237.80s CPU    246.66s WALL (    2695 calls)
     s_psi        :     26.89s CPU     26.97s WALL (    2695 calls)
     g_psi        :      0.70s CPU      0.72s WALL (    2245 calls)

     Called by h_psi:
     h_psi:calbec :     27.54s CPU     28.19s WALL (    2695 calls)
     vloc_psi     :    181.04s CPU    189.14s WALL (    2695 calls)
     add_vuspsi   :     27.14s CPU     27.26s WALL (    2695 calls)

     General routines
     calbec       :     36.92s CPU     37.78s WALL (    3115 calls)
     fft          :      4.15s CPU      4.94s WALL (     369 calls)
     ffts         :      0.11s CPU      0.12s WALL (      58 calls)
     fftw         :    186.99s CPU    195.24s WALL (  246924 calls)
     interpolate  :      0.41s CPU      0.44s WALL (      30 calls)
 
     Parallel routines
     fft_scatt_xy :     29.95s CPU     31.10s WALL (  247351 calls)
     fft_scatt_yz :     74.38s CPU     78.90s WALL (  247351 calls)
 
     PWSCF        :   8m18.30s CPU   8m53.45s WALL

 
   This run was terminated on:  12:25:35  31Mar2021            

=------------------------------------------------------------------------------=
   JOB DONE.
=------------------------------------------------------------------------------=
