
     Program PWSCF v.6.7MaX starts on 31Mar2021 at 13:14:48 

     This program is part of the open-source Quantum ESPRESSO suite
     for quantum simulation of materials; please cite
         "P. Giannozzi et al., J. Phys.:Condens. Matter 21 395502 (2009);
         "P. Giannozzi et al., J. Phys.:Condens. Matter 29 465901 (2017);
          URL http://www.quantum-espresso.org", 
     in publications or presentations arising from this work. More details at
     http://www.quantum-espresso.org/quote

     Parallel version (MPI), running on    48 processors

     MPI processes distributed on     1 nodes
     R & G space division:  proc/nbgrp/npool/nimage =      48
     Reading input from Crdimer0.13-0.2.scf.in

     Current dimensions of program PWSCF are:
     Max number of different atomic species (ntypx) = 10
     Max number of k-points (npk) =  40000
     Max angular momentum in pseudopotentials (lmaxx) =  3
     file N.pbe-n-kjpaw_psl.1.0.0.UPF: wavefunction(s)  2S renormalized
     file Cr.pbe-spn-kjpaw_psl.1.0.0.UPF: wavefunction(s)  3S 3P 3D renormalized
     file Cr.pbe-spn-kjpaw_psl.1.0.0.UPF: wavefunction(s)  3S 3P 3D renormalized

     --------------------------------------------
     Parameters for DFT-D3 Dispersion Correction:
     --------------------------------------------
       Reference C6 values for interpolation: 

         atom   Coordination number   C6
         B          0.000           214.36
         B          0.971           150.74
         B          1.944           106.23
         B          2.913            62.89
         B          4.586            56.06
         N          0.000            50.54
         N          0.994            44.25
         N          2.014            39.35
         N          2.990            31.16
         Cr1        0.000          1381.48
         Cr1        1.827           571.38
         Cr1       10.619           306.69
         Cr2        0.000          1381.48
         Cr2        1.827           571.38
         Cr2       10.619           306.69

       Values used:

         atom   Coordination number  R0_AB[au]  C6      C8
         B          3.338            3.039     62.89   2505.94
         B          3.335            3.039     62.89   2506.01
         B          3.344            3.039     62.89   2505.78
         B          3.335            3.039     62.89   2506.00
         B          3.381            3.039     62.86   2504.72
         B          3.335            3.039     62.89   2506.00
         N          3.134            2.478     31.22    688.69
         N          3.135            2.478     31.22    688.69
         N          3.153            2.478     31.21    688.53
         N          3.135            2.478     31.22    688.68
         N          3.147            2.478     31.21    688.58
         N          3.134            2.478     31.22    688.70
         N          3.141            2.478     31.22    688.63
         N          3.134            2.478     31.22    688.70
         N          3.135            2.478     31.22    688.69
         B          3.337            3.039     62.89   2505.97
         B          3.335            3.039     62.89   2506.01
         B          3.335            3.039     62.89   2506.00
         B          3.381            3.039     62.86   2504.72
         B          3.338            3.039     62.89   2505.94
         B          3.337            3.039     62.89   2505.97
         N          3.141            2.478     31.22    688.63
         B          3.335            3.039     62.89   2506.01
         B          3.338            3.039     62.89   2505.95
         B          3.340            3.039     62.89   2505.88
         N          3.134            2.478     31.22    688.70
         N          3.135            2.478     31.22    688.69
         N          3.134            2.478     31.22    688.69
         N          3.134            2.478     31.22    688.69
         N          3.153            2.478     31.21    688.53
         N          3.135            2.478     31.22    688.68
         B          3.340            3.039     62.89   2505.88
         Cr1        0.986            3.252    735.94  67918.49
         Cr2        0.986            3.252    735.94  67918.49

         Molecular C6 ( Ry / a.u.^6 ) =     70860.16


     Subspace diagonalization in iterative solution of the eigenvalue problem:
     one sub-group per band group will be used
     scalapack distributed-memory algorithm (size of sub-group:  6*  6 procs)

 
     Parallelization info
     --------------------
     sticks:   dense  smooth     PW     G-vecs:    dense   smooth      PW
     Min         235      98     26                36277     9874    1408
     Max         236      99     27                36282     9883    1425
     Sum       11311    4741   1285              1741401   474235   68095
 


     bravais-lattice index     =            4
     lattice parameter (alat)  =      18.9275  a.u.
     unit-cell volume          =   10553.3021 (a.u.)^3
     number of atoms/cell      =           34
     number of atomic types    =            4
     number of electrons       =       156.00
     number of Kohn-Sham states=           94
     kinetic-energy cutoff     =      48.0000  Ry
     charge density cutoff     =     457.0000  Ry
     scf convergence threshold =      1.0E-07
     mixing beta               =       0.5000
     number of iterations used =            8  plain     mixing
     Exchange-correlation= SLA  PW   PBX  PBC
                           (   1   4   3   4   0   0   0)

     celldm(1)=  18.927497  celldm(2)=   0.000000  celldm(3)=   1.797125
     celldm(4)=   0.000000  celldm(5)=   0.000000  celldm(6)=   0.000000

     crystal axes: (cart. coord. in units of alat)
               a(1) = (   1.000000   0.000000   0.000000 )  
               a(2) = (  -0.500000   0.866025   0.000000 )  
               a(3) = (   0.000000   0.000000   1.797125 )  

     reciprocal axes: (cart. coord. in units 2 pi/alat)
               b(1) = (  1.000000  0.577350  0.000000 )  
               b(2) = (  0.000000  1.154701  0.000000 )  
               b(3) = (  0.000000  0.000000  0.556444 )  


     PseudoPot. # 1 for B  read from file:
     /home/sf05/q-e-qe-6.7MaX-Release/pseudo/B.pbe-n-kjpaw_psl.1.0.0.UPF
     MD5 check sum: d9c678ba5d3b2fd7b74e61139c9288d8
     Pseudo is Projector augmented-wave + core cor, Zval =  3.0
     Generated using "atomic" code by A. Dal Corso  v.5.1.2
     Shape of augmentation charge: PSQ
     Using radial grid of 1059 points,  4 beta functions with: 
                l(1) =   0
                l(2) =   0
                l(3) =   1
                l(4) =   1
     Q(r) pseudized with 0 coefficients 


     PseudoPot. # 2 for N  read from file:
     /home/sf05/q-e-qe-6.7MaX-Release/pseudo/N.pbe-n-kjpaw_psl.1.0.0.UPF
     MD5 check sum: e0e4e94a9c4025c5b51bd7d8793849bd
     Pseudo is Projector augmented-wave + core cor, Zval =  5.0
     Generated using "atomic" code by A. Dal Corso  v.5.1.2
     Shape of augmentation charge: PSQ
     Using radial grid of 1085 points,  4 beta functions with: 
                l(1) =   0
                l(2) =   0
                l(3) =   1
                l(4) =   1
     Q(r) pseudized with 0 coefficients 


     PseudoPot. # 3 for Cr read from file:
     /home/sf05/q-e-qe-6.7MaX-Release/pseudo/Cr.pbe-spn-kjpaw_psl.1.0.0.UPF
     MD5 check sum: 198f1a2427a48552563eee314eba32ba
     Pseudo is Projector augmented-wave + core cor, Zval = 14.0
     Generated using &quot;atomic&quot; code by A. Dal Corso  v.6.3
     Shape of augmentation charge: PSQ
     Using radial grid of 1183 points,  6 beta functions with: 
                l(1) =   0
                l(2) =   0
                l(3) =   1
                l(4) =   1
                l(5) =   2
                l(6) =   2
     Q(r) pseudized with 0 coefficients 


     PseudoPot. # 4 for Cr read from file:
     /home/sf05/q-e-qe-6.7MaX-Release/pseudo/Cr.pbe-spn-kjpaw_psl.1.0.0.UPF
     MD5 check sum: 198f1a2427a48552563eee314eba32ba
     Pseudo is Projector augmented-wave + core cor, Zval = 14.0
     Generated using &quot;atomic&quot; code by A. Dal Corso  v.6.3
     Shape of augmentation charge: PSQ
     Using radial grid of 1183 points,  6 beta functions with: 
                l(1) =   0
                l(2) =   0
                l(3) =   1
                l(4) =   1
                l(5) =   2
                l(6) =   2
     Q(r) pseudized with 0 coefficients 


     atomic species   valence    mass     pseudopotential
        B              3.00    10.81100     B ( 1.00)
        N              5.00    14.00674     N ( 1.00)
        Cr1           14.00    51.99610     Cr( 1.00)
        Cr2           14.00    51.99610     Cr( 1.00)

     Starting magnetic structure 
     atomic species   magnetization
        B            0.000
        N            0.000
        Cr1          1.000
        Cr2          1.000

     No symmetry found



   Cartesian axes

     site n.     atom                  positions (alat units)
         1           B   tau(   1) = (  -0.1250000   0.2165064   0.8985623  )
         2           B   tau(   2) = (   0.3750000   0.6495191   0.8985623  )
         3           B   tau(   3) = (   0.2500000   0.0000000   0.8985623  )
         4           B   tau(   4) = (   0.7500000   0.0000000   0.8985623  )
         5           B   tau(   5) = (   0.1250000   0.2165064   0.8985623  )
         6           B   tau(   6) = (  -0.3750000   0.6495191   0.8985623  )
         7           N   tau(   7) = (   0.7500005   0.2886748   0.8985623  )
         8           N   tau(   8) = (   0.3750005   0.5051812   0.8985623  )
         9           N   tau(   9) = (   0.3750005   0.0721685   0.8985623  )
        10           N   tau(  10) = (   0.6250005   0.0721685   0.8985623  )
        11           N   tau(  11) = (   0.2500005   0.2886748   0.8985623  )
        12           N   tau(  12) = (   0.6250005   0.5051812   0.8985623  )
        13           N   tau(  13) = (   0.0000005   0.2886748   0.8985623  )
        14           N   tau(  14) = (   0.2500005   0.7216875   0.8985623  )
        15           N   tau(  15) = (  -0.2499995   0.7216875   0.8985623  )
        16           B   tau(  16) = (   0.0000000   0.4330127   0.8985623  )
        17           B   tau(  17) = (   0.1250000   0.6495191   0.8985623  )
        18           B   tau(  18) = (  -0.1250000   0.6495191   0.8985623  )
        19           B   tau(  19) = (   0.3750000   0.2165064   0.8985623  )
        20           B   tau(  20) = (   0.6250000   0.2165064   0.8985623  )
        21           B   tau(  21) = (   0.5000000   0.4330127   0.8985623  )
        22           N   tau(  22) = (   0.5000005   0.2886748   0.8985623  )
        23           B   tau(  23) = (  -0.2500000   0.4330127   0.8985623  )
        24           B   tau(  24) = (   0.2500000   0.4330127   0.8985623  )
        25           B   tau(  25) = (   0.5000000   0.0000000   0.8985623  )
        26           N   tau(  26) = (  -0.1249995   0.5051812   0.8985623  )
        27           N   tau(  27) = (   0.1250005   0.5051812   0.8985623  )
        28           N   tau(  28) = (   0.0000005   0.7216875   0.8985623  )
        29           N   tau(  29) = (   0.5000005   0.7216875   0.8985623  )
        30           N   tau(  30) = (   0.1250005   0.0721685   0.8985623  )
        31           N   tau(  31) = (   0.8750005   0.0721685   0.8985623  )
        32           B   tau(  32) = (   0.0000000   0.0000000   0.8985623  )
        33           Cr1 tau(  33) = (   0.3800000   0.1732051   1.2040735  )
        34           Cr2 tau(  34) = (   0.1200000   0.1732051   1.2040735  )

     number of k points=    15  Gaussian smearing, width (Ry)=  0.0000
                       cart. coord. in units 2pi/alat
        k(    1) = (   0.1666667   0.2886751   0.0000000), wk =   0.0740741
        k(    2) = (   0.1666667  -0.4811252   0.0000000), wk =   0.0740741
        k(    3) = (   0.1666667  -0.0962250   0.0000000), wk =   0.0740741
        k(    4) = (  -0.5000000  -0.8660254   0.0000000), wk =   0.0370370
        k(    5) = (  -0.1666667   0.2886751   0.0000000), wk =   0.0740741
        k(    6) = (   0.3333333   0.0000000   0.0000000), wk =   0.0740741
        k(    7) = (  -0.1666667  -0.4811252   0.0000000), wk =   0.0740741
        k(    8) = (   0.5000000  -0.0962250   0.0000000), wk =   0.0740741
        k(    9) = (  -0.3333333  -0.3849002   0.0000000), wk =   0.0740741
        k(   10) = (   0.5000000   0.0962250   0.0000000), wk =   0.0740741
        k(   11) = (  -0.3333333   0.3849002   0.0000000), wk =   0.0740741
        k(   12) = (  -0.1666667  -0.0962250   0.0000000), wk =   0.0740741
        k(   13) = (  -0.0000000  -0.1924501   0.0000000), wk =   0.0740741
        k(   14) = (   0.5000000  -0.8660254   0.0000000), wk =   0.0370370
        k(   15) = (  -1.0000000   0.0000000   0.0000000), wk =   0.0370370

     Dense  grid:  1741401 G-vectors     FFT dimensions: ( 135, 135, 240)

     Smooth grid:   474235 G-vectors     FFT dimensions: (  90,  90, 160)

     Estimated max dynamical RAM per process >     218.62 MB

     Estimated total dynamical RAM >      10.25 GB
     Generating pointlists ...
     new r_m :   0.0595 (alat units)  1.1269 (a.u.) for type    1
     new r_m :   0.0595 (alat units)  1.1269 (a.u.) for type    2
     new r_m :   0.1072 (alat units)  2.0300 (a.u.) for type    3
     new r_m :   0.1072 (alat units)  2.0300 (a.u.) for type    4

     Initial potential from superposition of free atoms

     starting charge  155.99382, renormalised to  156.00000

     negative rho (up, down):  6.743E-03 4.655E-04
     Starting wfcs are  148 randomized atomic wfcs
     Checking if some PAW data can be deallocated... 

     total cpu time spent up to now is       20.5 secs

     Self-consistent Calculation

     iteration #  1     ecut=    48.00 Ry     beta= 0.50
     Davidson diagonalization with overlap
     ethr =  1.00E-02,  avg # of iterations =  2.8

     negative rho (up, down):  4.952E-03 2.899E-03

     total cpu time spent up to now is       63.7 secs

     total energy              =   -1130.70885875 Ry
     estimated scf accuracy    <      11.37800236 Ry

     total magnetization       =    12.00 Bohr mag/cell
     absolute magnetization    =    12.11 Bohr mag/cell

     iteration #  2     ecut=    48.00 Ry     beta= 0.50
     Davidson diagonalization with overlap
     ethr =  7.29E-03,  avg # of iterations =  2.8

     negative rho (up, down):  8.407E-03 7.295E-03

     total cpu time spent up to now is      104.3 secs

     total energy              =   -1133.03107282 Ry
     estimated scf accuracy    <       3.48796620 Ry

     total magnetization       =    10.00 Bohr mag/cell
     absolute magnetization    =    10.15 Bohr mag/cell

     iteration #  3     ecut=    48.00 Ry     beta= 0.50
     Davidson diagonalization with overlap
     ethr =  2.24E-03,  avg # of iterations =  6.9

     negative rho (up, down):  3.946E-03 3.421E-03

     total cpu time spent up to now is      145.4 secs

     total energy              =   -1133.56585211 Ry
     estimated scf accuracy    <       0.82520944 Ry

     total magnetization       =    10.00 Bohr mag/cell
     absolute magnetization    =    10.11 Bohr mag/cell

     iteration #  4     ecut=    48.00 Ry     beta= 0.50
     Davidson diagonalization with overlap
     ethr =  5.29E-04,  avg # of iterations =  6.4

     negative rho (up, down):  7.944E-03 7.978E-03

     total cpu time spent up to now is      185.0 secs

     total energy              =   -1133.73357875 Ry
     estimated scf accuracy    <       0.69213542 Ry

     total magnetization       =    10.00 Bohr mag/cell
     absolute magnetization    =    10.01 Bohr mag/cell

     iteration #  5     ecut=    48.00 Ry     beta= 0.50
     Davidson diagonalization with overlap
     ethr =  4.44E-04,  avg # of iterations =  6.6

     negative rho (up, down):  4.491E-03 4.681E-03

     total cpu time spent up to now is      227.0 secs

     total energy              =   -1133.80843576 Ry
     estimated scf accuracy    <       0.05783962 Ry

     total magnetization       =    10.00 Bohr mag/cell
     absolute magnetization    =    10.01 Bohr mag/cell

     iteration #  6     ecut=    48.00 Ry     beta= 0.50
     Davidson diagonalization with overlap
     ethr =  3.71E-05,  avg # of iterations =  8.6

     negative rho (up, down):  3.682E-03 4.008E-03

     total cpu time spent up to now is      271.9 secs

     total energy              =   -1133.81332963 Ry
     estimated scf accuracy    <       0.01650810 Ry

     total magnetization       =    10.00 Bohr mag/cell
     absolute magnetization    =    10.01 Bohr mag/cell

     iteration #  7     ecut=    48.00 Ry     beta= 0.50
     Davidson diagonalization with overlap
     ethr =  1.06E-05,  avg # of iterations =  7.9

     negative rho (up, down):  3.461E-03 3.968E-03

     total cpu time spent up to now is      315.0 secs

     total energy              =   -1133.81675343 Ry
     estimated scf accuracy    <       0.00457400 Ry

     total magnetization       =    10.00 Bohr mag/cell
     absolute magnetization    =    10.01 Bohr mag/cell

     iteration #  8     ecut=    48.00 Ry     beta= 0.50
     Davidson diagonalization with overlap
     ethr =  2.93E-06,  avg # of iterations =  6.6

     negative rho (up, down):  3.253E-03 3.858E-03

     total cpu time spent up to now is      356.0 secs

     total energy              =   -1133.81740844 Ry
     estimated scf accuracy    <       0.00085335 Ry

     total magnetization       =    10.00 Bohr mag/cell
     absolute magnetization    =    10.01 Bohr mag/cell

     iteration #  9     ecut=    48.00 Ry     beta= 0.50
     Davidson diagonalization with overlap
     ethr =  5.47E-07,  avg # of iterations =  3.2

     negative rho (up, down):  3.179E-03 3.841E-03

     total cpu time spent up to now is      390.4 secs

     total energy              =   -1133.81756057 Ry
     estimated scf accuracy    <       0.00009608 Ry

     total magnetization       =    10.00 Bohr mag/cell
     absolute magnetization    =    10.01 Bohr mag/cell

     iteration # 10     ecut=    48.00 Ry     beta= 0.50
     Davidson diagonalization with overlap
     ethr =  6.16E-08,  avg # of iterations =  4.3

     negative rho (up, down):  3.168E-03 3.852E-03

     total cpu time spent up to now is      433.8 secs

     total energy              =   -1133.81761737 Ry
     estimated scf accuracy    <       0.00001848 Ry

     total magnetization       =    10.00 Bohr mag/cell
     absolute magnetization    =    10.01 Bohr mag/cell

     iteration # 11     ecut=    48.00 Ry     beta= 0.50
     Davidson diagonalization with overlap
     ethr =  1.18E-08,  avg # of iterations =  3.8

     negative rho (up, down):  3.161E-03 3.860E-03

     total cpu time spent up to now is      470.1 secs

     total energy              =   -1133.81763253 Ry
     estimated scf accuracy    <       0.00000530 Ry

     total magnetization       =    10.00 Bohr mag/cell
     absolute magnetization    =    10.01 Bohr mag/cell

     iteration # 12     ecut=    48.00 Ry     beta= 0.50
     Davidson diagonalization with overlap
     ethr =  3.40E-09,  avg # of iterations =  4.1

     negative rho (up, down):  3.158E-03 3.866E-03

     total cpu time spent up to now is      506.3 secs

     total energy              =   -1133.81763734 Ry
     estimated scf accuracy    <       0.00000133 Ry

     total magnetization       =    10.00 Bohr mag/cell
     absolute magnetization    =    10.01 Bohr mag/cell

     iteration # 13     ecut=    48.00 Ry     beta= 0.50
     Davidson diagonalization with overlap
     ethr =  8.52E-10,  avg # of iterations =  4.1

     negative rho (up, down):  3.155E-03 3.866E-03

     total cpu time spent up to now is      543.1 secs

     total energy              =   -1133.81763907 Ry
     estimated scf accuracy    <       0.00000020 Ry

     total magnetization       =    10.00 Bohr mag/cell
     absolute magnetization    =    10.01 Bohr mag/cell

     iteration # 14     ecut=    48.00 Ry     beta= 0.50
     Davidson diagonalization with overlap
     ethr =  1.25E-10,  avg # of iterations =  4.4

     negative rho (up, down):  3.154E-03 3.866E-03
 
     Magnetic moment per site:
     atom:    1    charge:    0.8809    magn:    0.0003    constr:    0.0000
     atom:    2    charge:    0.8804    magn:    0.0001    constr:    0.0000
     atom:    3    charge:    0.8796    magn:    0.0006    constr:    0.0000
     atom:    4    charge:    0.8805    magn:    0.0001    constr:    0.0000
     atom:    5    charge:    0.8807    magn:    0.0003    constr:    0.0000
     atom:    6    charge:    0.8802    magn:    0.0001    constr:    0.0000
     atom:    7    charge:    2.8610    magn:    0.0000    constr:    0.0000
     atom:    8    charge:    2.8608    magn:    0.0005    constr:    0.0000
     atom:    9    charge:    2.8608    magn:    0.0080    constr:    0.0000
     atom:   10    charge:    2.8609    magn:    0.0009    constr:    0.0000
     atom:   11    charge:    2.8603    magn:    0.0071    constr:    0.0000
     atom:   12    charge:    2.8610    magn:    0.0001    constr:    0.0000
     atom:   13    charge:    2.8597    magn:    0.0043    constr:    0.0000
     atom:   14    charge:    2.8599    magn:    0.0003    constr:    0.0000
     atom:   15    charge:    2.8598    magn:    0.0004    constr:    0.0000
     atom:   16    charge:    0.8800    magn:    0.0005    constr:    0.0000
     atom:   17    charge:    0.8800    magn:    0.0001    constr:    0.0000
     atom:   18    charge:    0.8799    magn:    0.0001    constr:    0.0000
     atom:   19    charge:    0.8801    magn:    0.0003    constr:    0.0000
     atom:   20    charge:    0.8803    magn:    0.0003    constr:    0.0000
     atom:   21    charge:    0.8798    magn:    0.0005    constr:    0.0000
     atom:   22    charge:    2.8610    magn:    0.0043    constr:    0.0000
     atom:   23    charge:    0.8801    magn:    0.0002    constr:    0.0000
     atom:   24    charge:    0.8796    magn:    0.0005    constr:    0.0000
     atom:   25    charge:    0.8802    magn:    0.0004    constr:    0.0000
     atom:   26    charge:    2.8598    magn:    0.0001    constr:    0.0000
     atom:   27    charge:    2.8597    magn:    0.0005    constr:    0.0000
     atom:   28    charge:    2.8597    magn:    0.0005    constr:    0.0000
     atom:   29    charge:    2.8596    magn:    0.0005    constr:    0.0000
     atom:   30    charge:    2.8595    magn:    0.0080    constr:    0.0000
     atom:   31    charge:    2.8596    magn:    0.0009    constr:    0.0000
     atom:   32    charge:    0.8805    magn:    0.0004    constr:    0.0000
     atom:   33    charge:   12.2612    magn:    4.0525    constr:    0.0000
     atom:   34    charge:   12.2613    magn:    4.0526    constr:    0.0000

     total cpu time spent up to now is      581.7 secs

     End of self-consistent calculation

 ------ SPIN UP ------------


          k = 0.1667 0.2887 0.0000 ( 59267 PWs)   bands (ev):

   -72.9289 -72.9053 -44.5423 -44.3536 -44.3184 -44.2983 -44.2975 -44.2773
   -21.2371 -20.6506 -20.6466 -20.0957 -20.0861 -19.5772 -19.5743 -19.0900
   -18.6871 -18.6820 -18.4489 -18.4404 -18.1850 -18.0760 -18.0696 -17.8404
   -12.4744 -12.1975 -12.1918 -11.8117 -11.8083 -11.6490 -11.1820 -11.1800
   -10.3824 -10.3585 -10.1086 -10.1056  -9.5797  -9.5786  -8.8316  -8.8144
    -8.8124  -8.7564  -8.7530  -8.5870  -8.1877  -8.0483  -8.0028  -7.8197
    -7.8171  -7.4294  -7.4273  -7.2716  -7.2531  -7.1985  -7.1969  -6.9523
    -6.9448  -6.5623  -6.5257  -6.1444  -6.1431  -5.8639  -5.4092  -5.2895
    -5.2649  -5.1906  -4.9044  -4.8916  -4.4986  -4.3476  -4.3331  -3.9715
    -3.1173  -2.2727  -2.2490  -2.0000  -1.7080  -1.6820  -1.4766  -1.4468
    -1.3103  -1.2736  -1.2365  -0.5848   0.6517   0.9589   0.9885   1.1977
     1.2975   1.4788   1.5299   1.5800   1.6155   1.8024

          k = 0.1667-0.4811 0.0000 ( 59291 PWs)   bands (ev):

   -72.9289 -72.9053 -44.5423 -44.3537 -44.3184 -44.2983 -44.2975 -44.2773
   -21.1064 -20.9031 -20.7132 -20.1511 -19.7948 -19.4571 -19.3074 -19.1651
   -19.0050 -18.7695 -18.6304 -18.5358 -18.1383 -18.0816 -17.9127 -17.7146
   -12.3384 -12.1036 -12.0352 -11.8973 -11.6707 -11.6496 -11.5434 -10.9329
   -10.8804 -10.6141 -10.5142  -9.8507  -9.6839  -9.3269  -9.1015  -8.6601
    -8.6132  -8.5433  -8.3798  -8.3606  -8.1519  -8.1137  -8.0532  -8.0407
    -7.6782  -7.6138  -7.4844  -7.4649  -7.3481  -7.1616  -7.0585  -6.8524
    -6.6127  -6.3815  -6.1703  -6.1485  -5.9626  -5.9199  -5.7739  -5.7386
    -5.4419  -5.3892  -5.2011  -5.0341  -4.4358  -4.3404  -4.0803  -3.7588
    -3.1152  -2.2725  -2.2487  -1.9967  -1.7073  -1.6818  -1.4783  -1.4478
    -1.3118  -1.2731  -1.2374  -0.5887   0.5605   0.9701   0.9964   1.1119
     1.2487   1.2796   1.3964   1.8509   1.9164   2.1363

          k = 0.1667-0.0962 0.0000 ( 59226 PWs)   bands (ev):

   -72.9289 -72.9053 -44.5423 -44.3536 -44.3184 -44.2983 -44.2974 -44.2773
   -21.3036 -20.5255 -20.3368 -20.3291 -19.9792 -19.9704 -19.7969 -18.7199
   -18.7119 -18.3661 -18.3573 -18.3460 -18.2608 -18.2514 -18.0691 -18.0619
   -12.4982 -12.4925 -12.3989 -11.5721 -11.5663 -11.4180 -11.4101 -10.9170
   -10.9141  -9.9203  -9.9166  -9.6663  -9.3667  -9.3614  -9.2215  -9.2184
    -9.0331  -9.0307  -8.9157  -8.3148  -8.3117  -7.8919  -7.8896  -7.8727
    -7.8353  -7.7608  -7.6029  -7.5723  -7.1304  -7.0806  -6.9495  -6.8786
    -6.8759  -6.8435  -6.5219  -6.5185  -6.2480  -5.3436  -5.3071  -5.1337
    -5.0558  -4.8004  -4.7910  -4.7422  -4.6109  -4.5935  -4.3476  -4.3223
    -3.1199  -2.2729  -2.2493  -2.0034  -1.7098  -1.6822  -1.4752  -1.4456
    -1.3087  -1.2742  -1.2357  -0.5806   0.7817   0.9006   0.9543   1.2073
     1.2599   1.3542   1.5938   1.6016   1.7197   1.9833

          k =-0.5000-0.8660 0.0000 ( 59292 PWs)   bands (ev):

   -72.9289 -72.9053 -44.5423 -44.3537 -44.3184 -44.2983 -44.2974 -44.2773
   -21.0398 -21.0370 -20.4611 -20.4536 -19.4187 -19.4069 -19.4063 -19.3994
   -18.9828 -18.9797 -18.3161 -18.3114 -18.3067 -18.3039 -17.7854 -17.7784
   -12.0617 -12.0556 -12.0535 -12.0516 -11.8693 -11.8629 -11.3201 -11.3180
   -10.2263 -10.2216 -10.1257 -10.1235 -10.1209 -10.1165  -8.5876  -8.5392
    -8.5362  -8.5351  -8.5321  -8.5292  -7.8545  -7.8532  -7.8501  -7.8479
    -7.8167  -7.8105  -7.7745  -7.7429  -7.4805  -7.4769  -6.6021  -6.5971
    -6.3527  -6.3228  -6.2951  -6.2892  -6.1813  -6.1774  -5.7048  -5.6874
    -5.5354  -5.5329  -4.7170  -4.7130  -4.6984  -4.6744  -3.8802  -3.8592
    -3.1081  -2.2712  -2.2479  -1.9973  -1.7076  -1.6822  -1.4776  -1.4476
    -1.3196  -1.2771  -1.2393  -0.7004   0.7309   1.0178   1.0972   1.1635
     1.3880   1.5922   1.5960   1.6193   1.7144   1.8163

          k =-0.1667 0.2887 0.0000 ( 59267 PWs)   bands (ev):

   -72.9289 -72.9053 -44.5423 -44.3536 -44.3184 -44.2983 -44.2975 -44.2773
   -21.2371 -20.6506 -20.6467 -20.0957 -20.0861 -19.5772 -19.5743 -19.0900
   -18.6871 -18.6820 -18.4489 -18.4404 -18.1850 -18.0760 -18.0696 -17.8404
   -12.4744 -12.1975 -12.1918 -11.8117 -11.8083 -11.6490 -11.1819 -11.1800
   -10.3824 -10.3585 -10.1087 -10.1056  -9.5796  -9.5786  -8.8316  -8.8144
    -8.8124  -8.7564  -8.7531  -8.5870  -8.1878  -8.0483  -8.0028  -7.8197
    -7.8171  -7.4295  -7.4272  -7.2716  -7.2531  -7.1984  -7.1968  -6.9524
    -6.9449  -6.5623  -6.5257  -6.1444  -6.1431  -5.8638  -5.4093  -5.2895
    -5.2649  -5.1905  -4.9044  -4.8916  -4.4987  -4.3476  -4.3331  -3.9715
    -3.1173  -2.2727  -2.2490  -2.0000  -1.7080  -1.6820  -1.4766  -1.4468
    -1.3103  -1.2736  -1.2365  -0.5848   0.6517   0.9589   0.9885   1.1978
     1.2975   1.4788   1.5299   1.5800   1.6154   1.8023

          k = 0.3333 0.0000 0.0000 ( 59267 PWs)   bands (ev):

   -72.9289 -72.9053 -44.5423 -44.3536 -44.3184 -44.2983 -44.2974 -44.2773
   -21.2368 -20.6738 -20.6234 -20.0936 -20.0869 -19.6013 -19.5519 -19.0917
   -18.7022 -18.6628 -18.4487 -18.4423 -18.1808 -18.0968 -18.0547 -17.8397
   -12.4744 -12.1955 -12.1934 -11.8186 -11.8034 -11.6470 -11.1993 -11.1635
   -10.3812 -10.3587 -10.1194 -10.0948  -9.5857  -9.5716  -8.8384  -8.8134
    -8.8053  -8.7758  -8.7340  -8.5881  -8.1891  -8.0921  -7.9587  -7.8186
    -7.8165  -7.4347  -7.4215  -7.2800  -7.2394  -7.2075  -7.1878  -6.9512
    -6.9468  -6.6089  -6.4866  -6.1469  -6.1399  -5.8702  -5.4088  -5.2940
    -5.2493  -5.1910  -4.9131  -4.8862  -4.4891  -4.3715  -4.3219  -3.9701
    -3.1129  -2.2717  -2.2483  -2.0005  -1.7094  -1.6823  -1.4757  -1.4466
    -1.3150  -1.2764  -1.2378  -0.6627   0.7899   0.9462   1.1752   1.2598
     1.2859   1.4550   1.5459   1.5684   1.6104   1.8204

          k =-0.1667-0.4811 0.0000 ( 59291 PWs)   bands (ev):

   -72.9289 -72.9053 -44.5423 -44.3537 -44.3184 -44.2983 -44.2975 -44.2773
   -21.1064 -20.9031 -20.7132 -20.1511 -19.7948 -19.4571 -19.3074 -19.1651
   -19.0050 -18.7695 -18.6304 -18.5357 -18.1383 -18.0816 -17.9127 -17.7146
   -12.3384 -12.1036 -12.0352 -11.8973 -11.6707 -11.6496 -11.5435 -10.9329
   -10.8805 -10.6142 -10.5142  -9.8506  -9.6839  -9.3270  -9.1015  -8.6601
    -8.6131  -8.5434  -8.3798  -8.3606  -8.1519  -8.1137  -8.0533  -8.0407
    -7.6782  -7.6138  -7.4843  -7.4649  -7.3481  -7.1616  -7.0584  -6.8524
    -6.6127  -6.3815  -6.1703  -6.1485  -5.9626  -5.9199  -5.7738  -5.7386
    -5.4420  -5.3892  -5.2011  -5.0341  -4.4358  -4.3404  -4.0803  -3.7589
    -3.1152  -2.2725  -2.2487  -1.9967  -1.7073  -1.6818  -1.4783  -1.4478
    -1.3118  -1.2731  -1.2374  -0.5887   0.5605   0.9701   0.9964   1.1119
     1.2487   1.2796   1.3965   1.8509   1.9164   2.1347

          k = 0.5000-0.0962 0.0000 ( 59291 PWs)   bands (ev):

   -72.9289 -72.9053 -44.5423 -44.3536 -44.3184 -44.2983 -44.2974 -44.2773
   -21.1040 -20.9095 -20.7091 -20.1495 -19.7950 -19.4587 -19.3124 -19.1609
   -19.0058 -18.7702 -18.6218 -18.5411 -18.1273 -18.0962 -17.9103 -17.7143
   -12.3377 -12.1038 -12.0335 -11.9007 -11.6815 -11.6366 -11.5456 -10.9330
   -10.8788 -10.6128 -10.5163  -9.8485  -9.6846  -9.3279  -9.1010  -8.6510
    -8.6134  -8.5418  -8.3897  -8.3819  -8.1502  -8.0958  -8.0649  -8.0303
    -7.6751  -7.6144  -7.4835  -7.4660  -7.3416  -7.1628  -7.0588  -6.8523
    -6.6129  -6.3908  -6.1856  -6.1478  -5.9494  -5.9190  -5.7733  -5.7395
    -5.4431  -5.3893  -5.1793  -5.0481  -4.4131  -4.3679  -4.0780  -3.7586
    -3.1082  -2.2712  -2.2479  -1.9973  -1.7082  -1.6822  -1.4776  -1.4476
    -1.3195  -1.2772  -1.2394  -0.7001   0.7222   0.9928   1.0849   1.1943
     1.3041   1.3352   1.5573   1.7760   1.8855   1.9250

          k =-0.3333-0.3849 0.0000 ( 59291 PWs)   bands (ev):

   -72.9289 -72.9053 -44.5423 -44.3536 -44.3184 -44.2983 -44.2974 -44.2773
   -21.1048 -20.9073 -20.7106 -20.1494 -19.7966 -19.4571 -19.3082 -19.1638
   -19.0082 -18.7687 -18.6231 -18.5403 -18.1295 -18.0935 -17.9104 -17.7145
   -12.3380 -12.1024 -12.0353 -11.9000 -11.6714 -11.6476 -11.5447 -10.9329
   -10.8783 -10.6122 -10.5172  -9.8494  -9.6847  -9.3270  -9.1016  -8.6537
    -8.6126  -8.5437  -8.3809  -8.3781  -8.1517  -8.1027  -8.0532  -8.0426
    -7.6754  -7.6128  -7.4898  -7.4605  -7.3404  -7.1630  -7.0593  -6.8601
    -6.6112  -6.3822  -6.1706  -6.1496  -5.9614  -5.9182  -5.7737  -5.7487
    -5.4428  -5.3845  -5.1793  -5.0483  -4.4166  -4.3648  -4.0772  -3.7588
    -3.1105  -2.2717  -2.2482  -1.9971  -1.7075  -1.6821  -1.4781  -1.4477
    -1.3170  -1.2758  -1.2387  -0.6662   0.6639   0.9991   1.0984   1.1490
     1.2141   1.4031   1.4327   1.8242   1.9296   1.9479

          k = 0.5000 0.0962 0.0000 ( 59291 PWs)   bands (ev):

   -72.9289 -72.9053 -44.5423 -44.3536 -44.3184 -44.2983 -44.2974 -44.2773
   -21.1040 -20.9095 -20.7091 -20.1495 -19.7950 -19.4587 -19.3124 -19.1609
   -19.0058 -18.7702 -18.6218 -18.5411 -18.1273 -18.0962 -17.9103 -17.7143
   -12.3377 -12.1038 -12.0335 -11.9007 -11.6814 -11.6366 -11.5456 -10.9329
   -10.8788 -10.6128 -10.5163  -9.8485  -9.6846  -9.3279  -9.1009  -8.6510
    -8.6134  -8.5418  -8.3897  -8.3819  -8.1502  -8.0958  -8.0649  -8.0302
    -7.6752  -7.6143  -7.4835  -7.4660  -7.3416  -7.1629  -7.0588  -6.8523
    -6.6128  -6.3908  -6.1856  -6.1477  -5.9494  -5.9189  -5.7734  -5.7395
    -5.4432  -5.3893  -5.1793  -5.0480  -4.4131  -4.3678  -4.0781  -3.7586
    -3.1082  -2.2712  -2.2479  -1.9973  -1.7082  -1.6822  -1.4776  -1.4476
    -1.3195  -1.2772  -1.2394  -0.7001   0.7222   0.9928   1.0849   1.1943
     1.3041   1.3352   1.5573   1.7759   1.8855   1.9250

          k =-0.3333 0.3849 0.0000 ( 59291 PWs)   bands (ev):

   -72.9289 -72.9053 -44.5423 -44.3536 -44.3184 -44.2983 -44.2974 -44.2773
   -21.1048 -20.9073 -20.7106 -20.1494 -19.7966 -19.4571 -19.3082 -19.1638
   -19.0082 -18.7688 -18.6230 -18.5403 -18.1295 -18.0935 -17.9104 -17.7145
   -12.3380 -12.1024 -12.0354 -11.9000 -11.6714 -11.6476 -11.5446 -10.9329
   -10.8783 -10.6121 -10.5172  -9.8494  -9.6846  -9.3270  -9.1016  -8.6537
    -8.6126  -8.5437  -8.3809  -8.3781  -8.1517  -8.1027  -8.0532  -8.0426
    -7.6754  -7.6128  -7.4898  -7.4605  -7.3404  -7.1630  -7.0593  -6.8601
    -6.6112  -6.3822  -6.1706  -6.1497  -5.9613  -5.9183  -5.7736  -5.7487
    -5.4427  -5.3845  -5.1793  -5.0483  -4.4166  -4.3648  -4.0771  -3.7588
    -3.1105  -2.2717  -2.2482  -1.9971  -1.7075  -1.6821  -1.4781  -1.4477
    -1.3170  -1.2758  -1.2387  -0.6662   0.6639   0.9991   1.0984   1.1490
     1.2141   1.4031   1.4328   1.8242   1.9296   1.9479

          k =-0.1667-0.0962 0.0000 ( 59226 PWs)   bands (ev):

   -72.9289 -72.9053 -44.5423 -44.3536 -44.3184 -44.2983 -44.2974 -44.2773
   -21.3036 -20.5255 -20.3368 -20.3291 -19.9792 -19.9704 -19.7969 -18.7199
   -18.7119 -18.3661 -18.3573 -18.3460 -18.2608 -18.2514 -18.0691 -18.0619
   -12.4982 -12.4925 -12.3988 -11.5720 -11.5663 -11.4181 -11.4101 -10.9170
   -10.9141  -9.9203  -9.9166  -9.6663  -9.3667  -9.3613  -9.2215  -9.2185
    -9.0331  -9.0307  -8.9157  -8.3149  -8.3117  -7.8919  -7.8895  -7.8727
    -7.8353  -7.7609  -7.6029  -7.5723  -7.1304  -7.0806  -6.9496  -6.8786
    -6.8758  -6.8435  -6.5218  -6.5184  -6.2481  -5.3436  -5.3071  -5.1336
    -5.0559  -4.8004  -4.7909  -4.7423  -4.6109  -4.5935  -4.3476  -4.3224
    -3.1199  -2.2729  -2.2493  -2.0034  -1.7098  -1.6822  -1.4752  -1.4456
    -1.3087  -1.2742  -1.2357  -0.5806   0.7817   0.9006   0.9543   1.2072
     1.2599   1.3543   1.5939   1.6016   1.7197   1.9832

          k =-0.0000-0.1925 0.0000 ( 59226 PWs)   bands (ev):

   -72.9289 -72.9053 -44.5423 -44.3536 -44.3184 -44.2983 -44.2974 -44.2773
   -21.3037 -20.5212 -20.3435 -20.3300 -19.9774 -19.9658 -19.8000 -18.7205
   -18.7083 -18.3760 -18.3676 -18.3433 -18.2473 -18.2459 -18.0733 -18.0621
   -12.4961 -12.4948 -12.3987 -11.5747 -11.5654 -11.4142 -11.4109 -10.9181
   -10.9147  -9.9203  -9.9162  -9.6669  -9.3669  -9.3605  -9.2211  -9.2189
    -9.0323  -9.0320  -8.9162  -8.3146  -8.3108  -7.8909  -7.8893  -7.8571
    -7.8342  -7.7621  -7.6187  -7.5884  -7.1018  -7.0839  -6.9482  -6.8804
    -6.8753  -6.8541  -6.5228  -6.5171  -6.2484  -5.3318  -5.3110  -5.1340
    -5.0554  -4.8337  -4.7932  -4.7420  -4.5876  -4.5810  -4.3470  -4.3314
    -3.1220  -2.2734  -2.2496  -2.0031  -1.7090  -1.6821  -1.4757  -1.4458
    -1.3065  -1.2729  -1.2350  -0.5348   0.6853   0.8674   0.9307   1.1743
     1.2550   1.3810   1.5825   1.6044   1.7269   1.9811

          k = 0.5000-0.8660 0.0000 ( 59292 PWs)   bands (ev):

   -72.9289 -72.9053 -44.5423 -44.3537 -44.3184 -44.2983 -44.2974 -44.2773
   -21.0398 -21.0371 -20.4611 -20.4536 -19.4187 -19.4069 -19.4062 -19.3993
   -18.9828 -18.9797 -18.3161 -18.3115 -18.3067 -18.3039 -17.7854 -17.7784
   -12.0617 -12.0557 -12.0536 -12.0515 -11.8693 -11.8629 -11.3201 -11.3180
   -10.2263 -10.2216 -10.1257 -10.1235 -10.1209 -10.1165  -8.5875  -8.5391
    -8.5362  -8.5351  -8.5320  -8.5292  -7.8545  -7.8532  -7.8501  -7.8479
    -7.8167  -7.8105  -7.7745  -7.7429  -7.4805  -7.4770  -6.6021  -6.5970
    -6.3527  -6.3228  -6.2951  -6.2892  -6.1813  -6.1773  -5.7048  -5.6875
    -5.5355  -5.5330  -4.7170  -4.7130  -4.6985  -4.6744  -3.8802  -3.8592
    -3.1081  -2.2712  -2.2479  -1.9973  -1.7076  -1.6822  -1.4776  -1.4476
    -1.3196  -1.2771  -1.2393  -0.7004   0.7309   1.0178   1.0972   1.1635
     1.3880   1.5921   1.5960   1.6193   1.7144   1.8163

          k =-1.0000 0.0000 0.0000 ( 59292 PWs)   bands (ev):

   -72.9289 -72.9053 -44.5423 -44.3537 -44.3184 -44.2983 -44.2974 -44.2773
   -21.0625 -21.0120 -20.4659 -20.4528 -19.4143 -19.4108 -19.4078 -19.3931
   -19.0014 -18.9626 -18.3500 -18.3336 -18.2794 -18.2758 -17.7881 -17.7770
   -12.0848 -12.0756 -12.0324 -12.0260 -11.8722 -11.8608 -11.3396 -11.3006
   -10.2344 -10.2254 -10.1239 -10.1231 -10.1152 -10.1135  -8.6228  -8.5595
    -8.5515  -8.5142  -8.5135  -8.4846  -7.8626  -7.8611  -7.8497  -7.8473
    -7.8078  -7.8065  -7.7779  -7.7545  -7.5012  -7.4578  -6.6027  -6.5952
    -6.3381  -6.3217  -6.3024  -6.2789  -6.1971  -6.1642  -5.7219  -5.6767
    -5.5542  -5.5141  -4.7935  -4.7319  -4.6472  -4.6342  -3.8783  -3.8618
    -3.1176  -2.2727  -2.2488  -1.9965  -1.7073  -1.6817  -1.4780  -1.4479
    -1.3092  -1.2717  -1.2367  -0.5440   0.5194   0.8894   0.9725   1.1135
     1.2352   1.4814   1.6022   1.6255   1.6470   1.9367

 ------ SPIN DOWN ----------


          k = 0.1667 0.2887 0.0000 ( 59267 PWs)   bands (ev):

   -68.7556 -68.7293 -40.5146 -40.3002 -40.1551 -40.1320 -40.1196 -40.0963
   -21.2328 -20.6467 -20.6421 -20.0912 -20.0821 -19.5739 -19.5692 -19.0856
   -18.6824 -18.6770 -18.4444 -18.4362 -18.1796 -18.0720 -18.0657 -17.8358
   -12.4717 -12.1944 -12.1889 -11.8089 -11.8059 -11.6466 -11.1793 -11.1769
   -10.3792 -10.3555 -10.1052 -10.1026  -9.5766  -9.5758  -8.8159  -8.8094
    -8.8047  -8.7543  -8.7497  -8.5843  -8.1851  -8.0205  -7.9938  -7.8170
    -7.8145  -7.4251  -7.4244  -7.2516  -7.2372  -7.1961  -7.1939  -6.9495
    -6.9423  -6.5377  -6.5180  -6.1414  -6.1404  -5.8460  -5.4058  -5.2638
    -5.2517  -5.1877  -4.8890  -4.8771  -4.4794  -4.3319  -4.3224  -3.9562
    -1.5105   0.4407   0.7853   0.8845   0.9393   1.0944   1.2099   1.3158
     1.3735   1.4740   1.5332   1.5962   1.6618   1.7209   1.8280   1.9125
     2.0558   2.1308   2.1556   2.2150   2.3027   2.3409

          k = 0.1667-0.4811 0.0000 ( 59291 PWs)   bands (ev):

   -68.7556 -68.7293 -40.5146 -40.3002 -40.1551 -40.1320 -40.1196 -40.0963
   -21.1017 -20.8995 -20.7088 -20.1467 -19.7906 -19.4528 -19.3032 -19.1606
   -19.0006 -18.7653 -18.6245 -18.5322 -18.1318 -18.0792 -17.9081 -17.7099
   -12.3356 -12.1007 -12.0326 -11.8947 -11.6685 -11.6464 -11.5407 -10.9298
   -10.8772 -10.6108 -10.5115  -9.8472  -9.6811  -9.3236  -9.0986  -8.6342
    -8.6103  -8.5400  -8.3772  -8.3471  -8.1492  -8.0956  -8.0508  -8.0380
    -7.6752  -7.6111  -7.4816  -7.4624  -7.3287  -7.1582  -7.0558  -6.8351
    -6.6091  -6.3644  -6.1520  -6.1457  -5.9468  -5.9164  -5.7709  -5.7211
    -5.4391  -5.3734  -5.1761  -5.0239  -4.4126  -4.3336  -4.0654  -3.7441
    -1.5020   0.4294   0.7863   0.8909   0.9366   1.0273   1.1227   1.1981
     1.2895   1.3822   1.5867   1.7254   1.7562   1.8202   1.8381   2.1067
     2.1414   2.1487   2.1767   2.2305   2.2946   2.3414

          k = 0.1667-0.0962 0.0000 ( 59226 PWs)   bands (ev):

   -68.7556 -68.7293 -40.5146 -40.3002 -40.1551 -40.1320 -40.1196 -40.0963
   -21.2994 -20.5207 -20.3325 -20.3257 -19.9738 -19.9667 -19.7932 -18.7143
   -18.7078 -18.3609 -18.3531 -18.3418 -18.2559 -18.2468 -18.0645 -18.0585
   -12.4953 -12.4897 -12.3960 -11.5691 -11.5641 -11.4150 -11.4073 -10.9138
   -10.9115  -9.9171  -9.9139  -9.6630  -9.3637  -9.3585  -9.2177  -9.2154
    -9.0302  -9.0280  -8.8953  -8.3110  -8.3085  -7.8890  -7.8865  -7.8489
    -7.8309  -7.7583  -7.5843  -7.5617  -7.1016  -7.0699  -6.9467  -6.8757
    -6.8735  -6.8321  -6.5188  -6.5159  -6.2453  -5.3172  -5.2945  -5.1306
    -5.0528  -4.7817  -4.7716  -4.7285  -4.5945  -4.5807  -4.3291  -4.3126
    -1.5190   0.4541   0.7868   0.8796   0.9259   1.0761   1.1230   1.2703
     1.4580   1.5200   1.5948   1.6769   1.7409   1.8215   1.8600   1.9333
     1.9561   2.0333   2.1338   2.2077   2.2548   2.3359

          k =-0.5000-0.8660 0.0000 ( 59292 PWs)   bands (ev):

   -68.7556 -68.7293 -40.5147 -40.3002 -40.1551 -40.1320 -40.1196 -40.0963
   -21.0362 -21.0319 -20.4566 -20.4501 -19.4124 -19.4032 -19.4022 -19.3953
   -18.9793 -18.9748 -18.3099 -18.3082 -18.3057 -18.2961 -17.7802 -17.7745
   -12.0578 -12.0537 -12.0523 -12.0472 -11.8664 -11.8610 -11.3173 -11.3149
   -10.2229 -10.2190 -10.1221 -10.1199 -10.1179 -10.1140  -8.5542  -8.5353
    -8.5341  -8.5324  -8.5278  -8.5220  -7.8514  -7.8502  -7.8473  -7.8457
    -7.8115  -7.8068  -7.7554  -7.7321  -7.4788  -7.4736  -6.5987  -6.5947
    -6.3207  -6.2996  -6.2852  -6.2782  -6.1786  -6.1739  -5.6849  -5.6772
    -5.5335  -5.5291  -4.6956  -4.6860  -4.6850  -4.6718  -3.8618  -3.8479
    -1.4834   0.2067   0.8030   0.9029   0.9486   1.0250   1.1439   1.3403
     1.5091   1.5545   1.5857   1.6622   1.7252   1.8148   1.9058   1.9284
     2.0041   2.0627   2.2033   2.2526   2.3111   2.3533

          k =-0.1667 0.2887 0.0000 ( 59267 PWs)   bands (ev):

   -68.7556 -68.7293 -40.5146 -40.3002 -40.1551 -40.1320 -40.1196 -40.0963
   -21.2328 -20.6468 -20.6421 -20.0912 -20.0821 -19.5740 -19.5692 -19.0856
   -18.6824 -18.6770 -18.4444 -18.4362 -18.1796 -18.0720 -18.0657 -17.8358
   -12.4716 -12.1944 -12.1889 -11.8089 -11.8059 -11.6466 -11.1793 -11.1768
   -10.3792 -10.3554 -10.1052 -10.1026  -9.5766  -9.5758  -8.8159  -8.8094
    -8.8047  -8.7543  -8.7498  -8.5843  -8.1852  -8.0204  -7.9939  -7.8170
    -7.8144  -7.4252  -7.4244  -7.2516  -7.2372  -7.1961  -7.1939  -6.9496
    -6.9423  -6.5376  -6.5180  -6.1414  -6.1403  -5.8460  -5.4059  -5.2637
    -5.2517  -5.1876  -4.8890  -4.8771  -4.4795  -4.3319  -4.3224  -3.9562
    -1.5105   0.4407   0.7853   0.8845   0.9393   1.0945   1.2099   1.3158
     1.3735   1.4740   1.5332   1.5962   1.6618   1.7209   1.8280   1.9125
     2.0559   2.1308   2.1557   2.2152   2.3026   2.3409

          k = 0.3333 0.0000 0.0000 ( 59267 PWs)   bands (ev):

   -68.7556 -68.7293 -40.5146 -40.3002 -40.1551 -40.1320 -40.1196 -40.0963
   -21.2325 -20.6673 -20.6214 -20.0895 -20.0827 -19.5946 -19.5499 -19.0869
   -18.6953 -18.6608 -18.4438 -18.4380 -18.1764 -18.0895 -18.0527 -17.8353
   -12.4716 -12.1929 -12.1902 -11.8158 -11.8008 -11.6449 -11.1950 -11.1617
   -10.3782 -10.3556 -10.1151 -10.0928  -9.5822  -9.5694  -8.8217  -8.8100
    -8.7972  -8.7717  -8.7327  -8.5852  -8.1862  -8.0596  -7.9546  -7.8160
    -7.8141  -7.4301  -7.4190  -7.2566  -7.2285  -7.2040  -7.1861  -6.9484
    -6.9441  -6.5783  -6.4822  -6.1437  -6.1375  -5.8501  -5.4055  -5.2738
    -5.2346  -5.1881  -4.8935  -4.8747  -4.4732  -4.3526  -4.3096  -3.9555
    -1.4986   0.2822   0.8123   0.8959   0.9479   1.0527   1.1620   1.4037
     1.4610   1.5236   1.5378   1.6485   1.7499   1.7993   1.8420   1.9512
     2.0075   2.0798   2.1393   2.2151   2.3276   2.3929

          k =-0.1667-0.4811 0.0000 ( 59291 PWs)   bands (ev):

   -68.7556 -68.7293 -40.5146 -40.3002 -40.1551 -40.1320 -40.1196 -40.0963
   -21.1017 -20.8995 -20.7088 -20.1467 -19.7906 -19.4528 -19.3032 -19.1606
   -19.0007 -18.7653 -18.6245 -18.5322 -18.1318 -18.0792 -17.9081 -17.7099
   -12.3356 -12.1007 -12.0326 -11.8947 -11.6685 -11.6464 -11.5407 -10.9298
   -10.8772 -10.6108 -10.5114  -9.8472  -9.6811  -9.3237  -9.0987  -8.6342
    -8.6103  -8.5401  -8.3772  -8.3471  -8.1491  -8.0956  -8.0508  -8.0380
    -7.6752  -7.6111  -7.4815  -7.4624  -7.3287  -7.1582  -7.0558  -6.8351
    -6.6092  -6.3644  -6.1520  -6.1457  -5.9468  -5.9163  -5.7709  -5.7211
    -5.4392  -5.3734  -5.1761  -5.0240  -4.4126  -4.3336  -4.0654  -3.7441
    -1.5020   0.4294   0.7863   0.8909   0.9366   1.0273   1.1227   1.1981
     1.2895   1.3822   1.5867   1.7255   1.7562   1.8202   1.8382   2.1065
     2.1412   2.1486   2.1767   2.2305   2.2949   2.3408

          k = 0.5000-0.0962 0.0000 ( 59291 PWs)   bands (ev):

   -68.7556 -68.7293 -40.5146 -40.3002 -40.1551 -40.1320 -40.1196 -40.0964
   -21.0998 -20.9048 -20.7054 -20.1454 -19.7908 -19.4541 -19.3073 -19.1572
   -19.0013 -18.7658 -18.6177 -18.5365 -18.1229 -18.0909 -17.9062 -17.7097
   -12.3349 -12.1010 -12.0310 -11.8977 -11.6782 -11.6348 -11.5425 -10.9299
   -10.8757 -10.6096 -10.5133  -9.8453  -9.6817  -9.3244  -9.0982  -8.6279
    -8.6105  -8.5388  -8.3801  -8.3661  -8.1476  -8.0835  -8.0611  -8.0288
    -7.6726  -7.6116  -7.4808  -7.4634  -7.3243  -7.1594  -7.0560  -6.8352
    -6.6093  -6.3696  -6.1631  -6.1451  -5.9379  -5.9156  -5.7705  -5.7219
    -5.4402  -5.3734  -5.1614  -5.0334  -4.3959  -4.3533  -4.0636  -3.7439
    -1.4835   0.2085   0.8005   0.9017   0.9551   1.0096   1.1097   1.2123
     1.3608   1.5572   1.6804   1.7412   1.8123   1.8632   1.9683   2.0061
     2.0633   2.1336   2.2058   2.2639   2.3149   2.3686

          k =-0.3333-0.3849 0.0000 ( 59291 PWs)   bands (ev):

   -68.7556 -68.7293 -40.5146 -40.3002 -40.1551 -40.1320 -40.1196 -40.0963
   -21.1004 -20.9029 -20.7067 -20.1453 -19.7921 -19.4528 -19.3038 -19.1595
   -19.0033 -18.7646 -18.6186 -18.5359 -18.1246 -18.0889 -17.9063 -17.7098
   -12.3353 -12.0997 -12.0327 -11.8970 -11.6692 -11.6447 -11.5417 -10.9298
   -10.8754 -10.6091 -10.5140  -9.8461  -9.6818  -9.3238  -9.0987  -8.6297
    -8.6098  -8.5403  -8.3781  -8.3592  -8.1490  -8.0881  -8.0507  -8.0396
    -7.6729  -7.6102  -7.4862  -7.4587  -7.3237  -7.1595  -7.0564  -6.8400
    -6.6078  -6.3647  -6.1528  -6.1465  -5.9453  -5.9150  -5.7708  -5.7282
    -5.4399  -5.3704  -5.1618  -5.0333  -4.3982  -4.3512  -4.0632  -3.7440
    -1.4898   0.2707   0.7919   0.8986   0.9426   1.0047   1.1487   1.2650
     1.2881   1.4556   1.6612   1.7430   1.8272   1.9142   1.9424   2.0269
     2.0510   2.0884   2.1688   2.2314   2.3267   2.3526

          k = 0.5000 0.0962 0.0000 ( 59291 PWs)   bands (ev):

   -68.7556 -68.7293 -40.5146 -40.3002 -40.1551 -40.1320 -40.1196 -40.0964
   -21.0998 -20.9048 -20.7054 -20.1454 -19.7908 -19.4541 -19.3073 -19.1572
   -19.0013 -18.7657 -18.6177 -18.5365 -18.1229 -18.0909 -17.9062 -17.7097
   -12.3349 -12.1010 -12.0310 -11.8977 -11.6782 -11.6348 -11.5425 -10.9298
   -10.8757 -10.6096 -10.5133  -9.8454  -9.6817  -9.3244  -9.0981  -8.6279
    -8.6105  -8.5388  -8.3801  -8.3661  -8.1477  -8.0835  -8.0610  -8.0287
    -7.6727  -7.6116  -7.4808  -7.4635  -7.3243  -7.1594  -7.0560  -6.8352
    -6.6092  -6.3696  -6.1631  -6.1450  -5.9379  -5.9156  -5.7706  -5.7219
    -5.4403  -5.3735  -5.1614  -5.0334  -4.3959  -4.3533  -4.0636  -3.7439
    -1.4835   0.2085   0.8005   0.9017   0.9551   1.0096   1.1097   1.2124
     1.3607   1.5572   1.6804   1.7412   1.8123   1.8631   1.9683   2.0062
     2.0634   2.1336   2.2057   2.2638   2.3150   2.3687

          k =-0.3333 0.3849 0.0000 ( 59291 PWs)   bands (ev):

   -68.7556 -68.7293 -40.5146 -40.3002 -40.1551 -40.1320 -40.1196 -40.0963
   -21.1004 -20.9029 -20.7067 -20.1453 -19.7921 -19.4528 -19.3038 -19.1595
   -19.0033 -18.7646 -18.6186 -18.5359 -18.1246 -18.0889 -17.9063 -17.7099
   -12.3352 -12.0997 -12.0327 -11.8970 -11.6692 -11.6447 -11.5417 -10.9298
   -10.8754 -10.6090 -10.5140  -9.8461  -9.6817  -9.3238  -9.0987  -8.6297
    -8.6098  -8.5402  -8.3781  -8.3592  -8.1491  -8.0881  -8.0507  -8.0396
    -7.6728  -7.6102  -7.4863  -7.4587  -7.3237  -7.1595  -7.0565  -6.8400
    -6.6078  -6.3646  -6.1528  -6.1465  -5.9453  -5.9151  -5.7707  -5.7282
    -5.4398  -5.3704  -5.1618  -5.0333  -4.3983  -4.3512  -4.0632  -3.7440
    -1.4898   0.2707   0.7919   0.8987   0.9426   1.0047   1.1487   1.2650
     1.2881   1.4556   1.6612   1.7429   1.8272   1.9143   1.9424   2.0270
     2.0509   2.0884   2.1690   2.2315   2.3270   2.3528

          k =-0.1667-0.0962 0.0000 ( 59226 PWs)   bands (ev):

   -68.7556 -68.7293 -40.5146 -40.3002 -40.1551 -40.1320 -40.1196 -40.0963
   -21.2994 -20.5207 -20.3325 -20.3257 -19.9738 -19.9667 -19.7932 -18.7143
   -18.7078 -18.3609 -18.3531 -18.3417 -18.2559 -18.2468 -18.0645 -18.0585
   -12.4953 -12.4897 -12.3960 -11.5691 -11.5641 -11.4150 -11.4073 -10.9138
   -10.9115  -9.9171  -9.9139  -9.6630  -9.3637  -9.3585  -9.2177  -9.2155
    -9.0302  -9.0280  -8.8953  -8.3111  -8.3085  -7.8890  -7.8865  -7.8489
    -7.8308  -7.7584  -7.5843  -7.5617  -7.1016  -7.0699  -6.9467  -6.8757
    -6.8734  -6.8321  -6.5188  -6.5159  -6.2453  -5.3172  -5.2945  -5.1305
    -5.0529  -4.7817  -4.7715  -4.7285  -4.5945  -4.5807  -4.3291  -4.3126
    -1.5190   0.4541   0.7868   0.8796   0.9259   1.0761   1.1230   1.2703
     1.4580   1.5200   1.5948   1.6769   1.7409   1.8215   1.8600   1.9332
     1.9561   2.0334   2.1335   2.2080   2.2550   2.3359

          k =-0.0000-0.1925 0.0000 ( 59226 PWs)   bands (ev):

   -68.7556 -68.7293 -40.5146 -40.3002 -40.1551 -40.1320 -40.1196 -40.0963
   -21.2994 -20.5172 -20.3386 -20.3258 -19.9732 -19.9621 -19.7957 -18.7156
   -18.7041 -18.3689 -18.3617 -18.3390 -18.2446 -18.2430 -18.0687 -18.0578
   -12.4936 -12.4916 -12.3958 -11.5718 -11.5629 -11.4118 -11.4080 -10.9150
   -10.9118  -9.9174  -9.9133  -9.6635  -9.3637  -9.3579  -9.2177  -9.2156
    -9.0294  -9.0291  -8.8957  -8.3112  -8.3074  -7.8883  -7.8868  -7.8404
    -7.8275  -7.7593  -7.5954  -7.5720  -7.0858  -7.0686  -6.9455  -6.8776
    -6.8728  -6.8396  -6.5199  -6.5145  -6.2456  -5.3123  -5.2940  -5.1309
    -5.0524  -4.8027  -4.7757  -4.7272  -4.5787  -4.5727  -4.3315  -4.3156
    -1.5246   0.5753   0.7684   0.8610   0.9293   1.0882   1.1682   1.1828
     1.3998   1.5311   1.5340   1.5789   1.7198   1.8176   1.8613   1.8860
     2.0506   2.0814   2.1014   2.1880   2.2543   2.3378

          k = 0.5000-0.8660 0.0000 ( 59292 PWs)   bands (ev):

   -68.7556 -68.7293 -40.5147 -40.3002 -40.1551 -40.1320 -40.1196 -40.0963
   -21.0362 -21.0319 -20.4566 -20.4501 -19.4125 -19.4032 -19.4022 -19.3953
   -18.9794 -18.9747 -18.3098 -18.3083 -18.3058 -18.2961 -17.7802 -17.7745
   -12.0578 -12.0537 -12.0524 -12.0471 -11.8664 -11.8609 -11.3173 -11.3149
   -10.2230 -10.2190 -10.1221 -10.1199 -10.1179 -10.1140  -8.5542  -8.5353
    -8.5342  -8.5323  -8.5277  -8.5220  -7.8513  -7.8502  -7.8473  -7.8457
    -7.8116  -7.8069  -7.7554  -7.7321  -7.4789  -7.4736  -6.5987  -6.5946
    -6.3207  -6.2996  -6.2851  -6.2782  -6.1786  -6.1737  -5.6849  -5.6772
    -5.5336  -5.5292  -4.6955  -4.6860  -4.6850  -4.6719  -3.8619  -3.8479
    -1.4834   0.2067   0.8030   0.9029   0.9486   1.0250   1.1439   1.3403
     1.5091   1.5544   1.5857   1.6622   1.7252   1.8148   1.9058   1.9283
     2.0040   2.0627   2.2034   2.2526   2.3114   2.3533

          k =-1.0000 0.0000 0.0000 ( 59292 PWs)   bands (ev):

   -68.7556 -68.7293 -40.5147 -40.3002 -40.1551 -40.1320 -40.1196 -40.0963
   -21.0562 -21.0100 -20.4612 -20.4488 -19.4100 -19.4060 -19.4036 -19.3895
   -18.9947 -18.9606 -18.3411 -18.3260 -18.2783 -18.2750 -17.7833 -17.7725
   -12.0811 -12.0706 -12.0313 -12.0249 -11.8695 -11.8585 -11.3352 -11.2988
   -10.2305 -10.2218 -10.1206 -10.1199 -10.1126 -10.1113  -8.5884  -8.5551
    -8.5475  -8.5132  -8.5120  -8.4806  -7.8591  -7.8577  -7.8468  -7.8445
    -7.8035  -7.8021  -7.7594  -7.7388  -7.4971  -7.4566  -6.5997  -6.5925
    -6.3139  -6.2991  -6.2900  -6.2683  -6.1926  -6.1620  -5.7027  -5.6634
    -5.5495  -5.5130  -4.7554  -4.7093  -4.6441  -4.6323  -3.8632  -3.8473
    -1.5080   0.5384   0.7900   0.8968   0.9390   1.0508   1.1021   1.2242
     1.3277   1.3641   1.6278   1.6439   1.6729   1.7589   1.7847   1.7998
     2.1315   2.1776   2.1939   2.2348   2.2824   2.3447

     the Fermi energy is    -1.1378 ev

!    total energy              =   -1133.81763950 Ry

     total all-electron energy =     -6753.493343 Ry
     estimated scf accuracy    <       0.00000002 Ry
     smearing contrib. (-TS)   =      -0.00000000 Ry
     internal energy E=F+TS    =   -1133.81763950 Ry

     The total energy is F=E-TS. E is the sum of the following terms:
     one-electron contribution =   -3964.37430816 Ry
     hartree contribution      =    2010.38325404 Ry
     xc contribution           =    -186.04424457 Ry
     ewald contribution        =    1365.58900915 Ry
     DFT-D3 Dispersion         =      -0.12422035 Ry
     one-center paw contrib.   =    -359.24712960 Ry

     total magnetization       =    10.00 Bohr mag/cell
     absolute magnetization    =    10.01 Bohr mag/cell

     convergence has been achieved in  14 iterations

     Writing output data file ./mytmp/Crdimer0.13-0.2.save/
 
     init_run     :     18.83s CPU     20.18s WALL (       1 calls)
     electrons    :    517.22s CPU    561.48s WALL (       1 calls)

     Called by init_run:
     wfcinit      :     13.86s CPU     14.62s WALL (       1 calls)
     potinit      :      1.52s CPU      1.60s WALL (       1 calls)
     hinit0       :      1.49s CPU      1.60s WALL (       1 calls)

     Called by electrons:
     c_bands      :    402.48s CPU    427.49s WALL (      14 calls)
     sum_band     :     80.87s CPU     92.51s WALL (      14 calls)
     v_of_rho     :      7.58s CPU      8.37s WALL (      15 calls)
     newd         :     18.43s CPU     25.30s WALL (      15 calls)
     PAW_pot      :      7.41s CPU      7.48s WALL (      15 calls)
     mix_rho      :      0.97s CPU      1.07s WALL (      14 calls)

     Called by c_bands:
     init_us_2    :      5.03s CPU      5.08s WALL (     870 calls)
     cegterg      :    390.14s CPU    415.05s WALL (     420 calls)

     Called by *egterg:
     cdiaghg      :     23.71s CPU     37.51s WALL (    2594 calls)
     h_psi        :    240.36s CPU    250.18s WALL (    2624 calls)
     s_psi        :     26.67s CPU     26.77s WALL (    2624 calls)
     g_psi        :      0.69s CPU      0.71s WALL (    2174 calls)

     Called by h_psi:
     h_psi:calbec :     28.58s CPU     29.19s WALL (    2624 calls)
     vloc_psi     :    182.70s CPU    191.69s WALL (    2624 calls)
     add_vuspsi   :     26.89s CPU     27.08s WALL (    2624 calls)

     General routines
     calbec       :     38.32s CPU     39.09s WALL (    3044 calls)
     fft          :      9.46s CPU     13.90s WALL (     369 calls)
     ffts         :      0.11s CPU      0.12s WALL (      58 calls)
     fftw         :    189.06s CPU    198.34s WALL (  247624 calls)
     interpolate  :      0.42s CPU      0.46s WALL (      30 calls)
 
     Parallel routines
     fft_scatt_xy :     30.69s CPU     31.92s WALL (  248051 calls)
     fft_scatt_yz :     79.19s CPU     88.02s WALL (  248051 calls)
 
     PWSCF        :   8m57.99s CPU   9m46.38s WALL

 
   This run was terminated on:  13:24:34  31Mar2021            

=------------------------------------------------------------------------------=
   JOB DONE.
=------------------------------------------------------------------------------=
