
     Program PWSCF v.6.7MaX starts on 31Mar2021 at 13:44:23 

     This program is part of the open-source Quantum ESPRESSO suite
     for quantum simulation of materials; please cite
         "P. Giannozzi et al., J. Phys.:Condens. Matter 21 395502 (2009);
         "P. Giannozzi et al., J. Phys.:Condens. Matter 29 465901 (2017);
          URL http://www.quantum-espresso.org", 
     in publications or presentations arising from this work. More details at
     http://www.quantum-espresso.org/quote

     Parallel version (MPI), running on    48 processors

     MPI processes distributed on     1 nodes
     R & G space division:  proc/nbgrp/npool/nimage =      48
     Reading input from Crdimer0.13-0.5.scf.in

     Current dimensions of program PWSCF are:
     Max number of different atomic species (ntypx) = 10
     Max number of k-points (npk) =  40000
     Max angular momentum in pseudopotentials (lmaxx) =  3
     file N.pbe-n-kjpaw_psl.1.0.0.UPF: wavefunction(s)  2S renormalized
     file Cr.pbe-spn-kjpaw_psl.1.0.0.UPF: wavefunction(s)  3S 3P 3D renormalized
     file Cr.pbe-spn-kjpaw_psl.1.0.0.UPF: wavefunction(s)  3S 3P 3D renormalized

     --------------------------------------------
     Parameters for DFT-D3 Dispersion Correction:
     --------------------------------------------
       Reference C6 values for interpolation: 

         atom   Coordination number   C6
         B          0.000           214.36
         B          0.971           150.74
         B          1.944           106.23
         B          2.913            62.89
         B          4.586            56.06
         N          0.000            50.54
         N          0.994            44.25
         N          2.014            39.35
         N          2.990            31.16
         Cr1        0.000          1381.48
         Cr1        1.827           571.38
         Cr1       10.619           306.69
         Cr2        0.000          1381.48
         Cr2        1.827           571.38
         Cr2       10.619           306.69

       Values used:

         atom   Coordination number  R0_AB[au]  C6      C8
         B          3.336            3.039     62.89   2505.99
         B          3.340            3.039     62.89   2505.88
         B          3.335            3.039     62.89   2506.01
         B          3.335            3.039     62.89   2506.01
         B          3.340            3.039     62.89   2505.88
         B          3.336            3.039     62.89   2505.99
         N          3.134            2.478     31.22    688.70
         N          3.159            2.478     31.21    688.49
         N          3.134            2.478     31.22    688.69
         N          3.134            2.478     31.22    688.70
         N          3.143            2.478     31.21    688.61
         N          3.136            2.478     31.22    688.68
         N          3.139            2.478     31.22    688.65
         N          3.135            2.478     31.22    688.69
         N          3.134            2.478     31.22    688.70
         B          3.356            3.039     62.88   2505.47
         B          3.340            3.039     62.89   2505.88
         B          3.336            3.039     62.89   2505.99
         B          3.340            3.039     62.89   2505.88
         B          3.336            3.039     62.89   2505.99
         B          3.356            3.039     62.88   2505.47
         N          3.139            2.478     31.22    688.65
         B          3.336            3.039     62.89   2505.99
         B          3.371            3.039     62.87   2505.04
         B          3.335            3.039     62.89   2506.01
         N          3.136            2.478     31.22    688.68
         N          3.159            2.478     31.21    688.49
         N          3.135            2.478     31.22    688.69
         N          3.135            2.478     31.22    688.69
         N          3.134            2.478     31.22    688.69
         N          3.134            2.478     31.22    688.70
         B          3.335            3.039     62.89   2506.01
         Cr1        0.978            3.252    751.07  69315.68
         Cr2        0.978            3.252    751.07  69315.68

         Molecular C6 ( Ry / a.u.^6 ) =     71087.32


     Subspace diagonalization in iterative solution of the eigenvalue problem:
     one sub-group per band group will be used
     scalapack distributed-memory algorithm (size of sub-group:  6*  6 procs)

 
     Parallelization info
     --------------------
     sticks:   dense  smooth     PW     G-vecs:    dense   smooth      PW
     Min         235      98     26                36277     9874    1408
     Max         236      99     27                36282     9883    1425
     Sum       11311    4741   1285              1741401   474235   68095
 


     bravais-lattice index     =            4
     lattice parameter (alat)  =      18.9275  a.u.
     unit-cell volume          =   10553.3021 (a.u.)^3
     number of atoms/cell      =           34
     number of atomic types    =            4
     number of electrons       =       156.00
     number of Kohn-Sham states=           94
     kinetic-energy cutoff     =      48.0000  Ry
     charge density cutoff     =     457.0000  Ry
     scf convergence threshold =      1.0E-07
     mixing beta               =       0.5000
     number of iterations used =            8  plain     mixing
     Exchange-correlation= SLA  PW   PBX  PBC
                           (   1   4   3   4   0   0   0)

     celldm(1)=  18.927497  celldm(2)=   0.000000  celldm(3)=   1.797125
     celldm(4)=   0.000000  celldm(5)=   0.000000  celldm(6)=   0.000000

     crystal axes: (cart. coord. in units of alat)
               a(1) = (   1.000000   0.000000   0.000000 )  
               a(2) = (  -0.500000   0.866025   0.000000 )  
               a(3) = (   0.000000   0.000000   1.797125 )  

     reciprocal axes: (cart. coord. in units 2 pi/alat)
               b(1) = (  1.000000  0.577350  0.000000 )  
               b(2) = (  0.000000  1.154701  0.000000 )  
               b(3) = (  0.000000  0.000000  0.556444 )  


     PseudoPot. # 1 for B  read from file:
     /home/sf05/q-e-qe-6.7MaX-Release/pseudo/B.pbe-n-kjpaw_psl.1.0.0.UPF
     MD5 check sum: d9c678ba5d3b2fd7b74e61139c9288d8
     Pseudo is Projector augmented-wave + core cor, Zval =  3.0
     Generated using "atomic" code by A. Dal Corso  v.5.1.2
     Shape of augmentation charge: PSQ
     Using radial grid of 1059 points,  4 beta functions with: 
                l(1) =   0
                l(2) =   0
                l(3) =   1
                l(4) =   1
     Q(r) pseudized with 0 coefficients 


     PseudoPot. # 2 for N  read from file:
     /home/sf05/q-e-qe-6.7MaX-Release/pseudo/N.pbe-n-kjpaw_psl.1.0.0.UPF
     MD5 check sum: e0e4e94a9c4025c5b51bd7d8793849bd
     Pseudo is Projector augmented-wave + core cor, Zval =  5.0
     Generated using "atomic" code by A. Dal Corso  v.5.1.2
     Shape of augmentation charge: PSQ
     Using radial grid of 1085 points,  4 beta functions with: 
                l(1) =   0
                l(2) =   0
                l(3) =   1
                l(4) =   1
     Q(r) pseudized with 0 coefficients 


     PseudoPot. # 3 for Cr read from file:
     /home/sf05/q-e-qe-6.7MaX-Release/pseudo/Cr.pbe-spn-kjpaw_psl.1.0.0.UPF
     MD5 check sum: 198f1a2427a48552563eee314eba32ba
     Pseudo is Projector augmented-wave + core cor, Zval = 14.0
     Generated using &quot;atomic&quot; code by A. Dal Corso  v.6.3
     Shape of augmentation charge: PSQ
     Using radial grid of 1183 points,  6 beta functions with: 
                l(1) =   0
                l(2) =   0
                l(3) =   1
                l(4) =   1
                l(5) =   2
                l(6) =   2
     Q(r) pseudized with 0 coefficients 


     PseudoPot. # 4 for Cr read from file:
     /home/sf05/q-e-qe-6.7MaX-Release/pseudo/Cr.pbe-spn-kjpaw_psl.1.0.0.UPF
     MD5 check sum: 198f1a2427a48552563eee314eba32ba
     Pseudo is Projector augmented-wave + core cor, Zval = 14.0
     Generated using &quot;atomic&quot; code by A. Dal Corso  v.6.3
     Shape of augmentation charge: PSQ
     Using radial grid of 1183 points,  6 beta functions with: 
                l(1) =   0
                l(2) =   0
                l(3) =   1
                l(4) =   1
                l(5) =   2
                l(6) =   2
     Q(r) pseudized with 0 coefficients 


     atomic species   valence    mass     pseudopotential
        B              3.00    10.81100     B ( 1.00)
        N              5.00    14.00674     N ( 1.00)
        Cr1           14.00    51.99610     Cr( 1.00)
        Cr2           14.00    51.99610     Cr( 1.00)

     Starting magnetic structure 
     atomic species   magnetization
        B            0.000
        N            0.000
        Cr1          1.000
        Cr2          1.000

     No symmetry found



   Cartesian axes

     site n.     atom                  positions (alat units)
         1           B   tau(   1) = (  -0.1250000   0.2165064   0.8985623  )
         2           B   tau(   2) = (   0.3750000   0.6495191   0.8985623  )
         3           B   tau(   3) = (   0.2500000   0.0000000   0.8985623  )
         4           B   tau(   4) = (   0.7500000   0.0000000   0.8985623  )
         5           B   tau(   5) = (   0.1250000   0.2165064   0.8985623  )
         6           B   tau(   6) = (  -0.3750000   0.6495191   0.8985623  )
         7           N   tau(   7) = (   0.7500005   0.2886748   0.8985623  )
         8           N   tau(   8) = (   0.3750005   0.5051812   0.8985623  )
         9           N   tau(   9) = (   0.3750005   0.0721685   0.8985623  )
        10           N   tau(  10) = (   0.6250005   0.0721685   0.8985623  )
        11           N   tau(  11) = (   0.2500005   0.2886748   0.8985623  )
        12           N   tau(  12) = (   0.6250005   0.5051812   0.8985623  )
        13           N   tau(  13) = (   0.0000005   0.2886748   0.8985623  )
        14           N   tau(  14) = (   0.2500005   0.7216875   0.8985623  )
        15           N   tau(  15) = (  -0.2499995   0.7216875   0.8985623  )
        16           B   tau(  16) = (   0.0000000   0.4330127   0.8985623  )
        17           B   tau(  17) = (   0.1250000   0.6495191   0.8985623  )
        18           B   tau(  18) = (  -0.1250000   0.6495191   0.8985623  )
        19           B   tau(  19) = (   0.3750000   0.2165064   0.8985623  )
        20           B   tau(  20) = (   0.6250000   0.2165064   0.8985623  )
        21           B   tau(  21) = (   0.5000000   0.4330127   0.8985623  )
        22           N   tau(  22) = (   0.5000005   0.2886748   0.8985623  )
        23           B   tau(  23) = (  -0.2500000   0.4330127   0.8985623  )
        24           B   tau(  24) = (   0.2500000   0.4330127   0.8985623  )
        25           B   tau(  25) = (   0.5000000   0.0000000   0.8985623  )
        26           N   tau(  26) = (  -0.1249995   0.5051812   0.8985623  )
        27           N   tau(  27) = (   0.1250005   0.5051812   0.8985623  )
        28           N   tau(  28) = (   0.0000005   0.7216875   0.8985623  )
        29           N   tau(  29) = (   0.5000005   0.7216875   0.8985623  )
        30           N   tau(  30) = (   0.1250005   0.0721685   0.8985623  )
        31           N   tau(  31) = (   0.8750005   0.0721685   0.8985623  )
        32           B   tau(  32) = (   0.0000000   0.0000000   0.8985623  )
        33           Cr1 tau(  33) = (   0.3800000   0.4330127   1.2040735  )
        34           Cr2 tau(  34) = (   0.1200000   0.4330127   1.2040735  )

     number of k points=    15  Gaussian smearing, width (Ry)=  0.0000
                       cart. coord. in units 2pi/alat
        k(    1) = (   0.1666667   0.2886751   0.0000000), wk =   0.0740741
        k(    2) = (   0.1666667  -0.4811252   0.0000000), wk =   0.0740741
        k(    3) = (   0.1666667  -0.0962250   0.0000000), wk =   0.0740741
        k(    4) = (  -0.5000000  -0.8660254   0.0000000), wk =   0.0370370
        k(    5) = (  -0.1666667   0.2886751   0.0000000), wk =   0.0740741
        k(    6) = (   0.3333333   0.0000000   0.0000000), wk =   0.0740741
        k(    7) = (  -0.1666667  -0.4811252   0.0000000), wk =   0.0740741
        k(    8) = (   0.5000000  -0.0962250   0.0000000), wk =   0.0740741
        k(    9) = (  -0.3333333  -0.3849002   0.0000000), wk =   0.0740741
        k(   10) = (   0.5000000   0.0962250   0.0000000), wk =   0.0740741
        k(   11) = (  -0.3333333   0.3849002   0.0000000), wk =   0.0740741
        k(   12) = (  -0.1666667  -0.0962250   0.0000000), wk =   0.0740741
        k(   13) = (  -0.0000000  -0.1924501   0.0000000), wk =   0.0740741
        k(   14) = (   0.5000000  -0.8660254   0.0000000), wk =   0.0370370
        k(   15) = (  -1.0000000   0.0000000   0.0000000), wk =   0.0370370

     Dense  grid:  1741401 G-vectors     FFT dimensions: ( 135, 135, 240)

     Smooth grid:   474235 G-vectors     FFT dimensions: (  90,  90, 160)

     Estimated max dynamical RAM per process >     218.62 MB

     Estimated total dynamical RAM >      10.25 GB
     Generating pointlists ...
     new r_m :   0.0595 (alat units)  1.1269 (a.u.) for type    1
     new r_m :   0.0595 (alat units)  1.1269 (a.u.) for type    2
     new r_m :   0.1072 (alat units)  2.0300 (a.u.) for type    3
     new r_m :   0.1072 (alat units)  2.0300 (a.u.) for type    4

     Initial potential from superposition of free atoms

     starting charge  155.99382, renormalised to  156.00000

     negative rho (up, down):  6.752E-03 4.655E-04
     Starting wfcs are  148 randomized atomic wfcs
     Checking if some PAW data can be deallocated... 

     total cpu time spent up to now is       20.5 secs

     Self-consistent Calculation

     iteration #  1     ecut=    48.00 Ry     beta= 0.50
     Davidson diagonalization with overlap
     ethr =  1.00E-02,  avg # of iterations =  2.8

     negative rho (up, down):  4.960E-03 2.908E-03

     total cpu time spent up to now is       64.2 secs

     total energy              =   -1130.71976311 Ry
     estimated scf accuracy    <      11.35497613 Ry

     total magnetization       =    12.00 Bohr mag/cell
     absolute magnetization    =    12.11 Bohr mag/cell

     iteration #  2     ecut=    48.00 Ry     beta= 0.50
     Davidson diagonalization with overlap
     ethr =  7.28E-03,  avg # of iterations =  2.8

     negative rho (up, down):  8.778E-03 7.788E-03

     total cpu time spent up to now is      105.2 secs

     total energy              =   -1132.94369551 Ry
     estimated scf accuracy    <       3.67089148 Ry

     total magnetization       =    10.00 Bohr mag/cell
     absolute magnetization    =    10.08 Bohr mag/cell

     iteration #  3     ecut=    48.00 Ry     beta= 0.50
     Davidson diagonalization with overlap
     ethr =  2.35E-03,  avg # of iterations =  7.1

     negative rho (up, down):  4.499E-03 4.023E-03

     total cpu time spent up to now is      147.3 secs

     total energy              =   -1133.54942838 Ry
     estimated scf accuracy    <       0.91740569 Ry

     total magnetization       =    10.00 Bohr mag/cell
     absolute magnetization    =    10.11 Bohr mag/cell

     iteration #  4     ecut=    48.00 Ry     beta= 0.50
     Davidson diagonalization with overlap
     ethr =  5.88E-04,  avg # of iterations =  7.1

     negative rho (up, down):  7.548E-03 7.532E-03

     total cpu time spent up to now is      187.5 secs

     total energy              =   -1133.74688533 Ry
     estimated scf accuracy    <       0.60092216 Ry

     total magnetization       =    10.00 Bohr mag/cell
     absolute magnetization    =    10.01 Bohr mag/cell

     iteration #  5     ecut=    48.00 Ry     beta= 0.50
     Davidson diagonalization with overlap
     ethr =  3.85E-04,  avg # of iterations =  6.3

     negative rho (up, down):  4.462E-03 4.587E-03

     total cpu time spent up to now is      228.7 secs

     total energy              =   -1133.80369963 Ry
     estimated scf accuracy    <       0.08892423 Ry

     total magnetization       =    10.00 Bohr mag/cell
     absolute magnetization    =    10.01 Bohr mag/cell

     iteration #  6     ecut=    48.00 Ry     beta= 0.50
     Davidson diagonalization with overlap
     ethr =  5.70E-05,  avg # of iterations =  8.3

     negative rho (up, down):  3.704E-03 4.012E-03

     total cpu time spent up to now is      273.7 secs

     total energy              =   -1133.81326415 Ry
     estimated scf accuracy    <       0.01994475 Ry

     total magnetization       =    10.00 Bohr mag/cell
     absolute magnetization    =    10.01 Bohr mag/cell

     iteration #  7     ecut=    48.00 Ry     beta= 0.50
     Davidson diagonalization with overlap
     ethr =  1.28E-05,  avg # of iterations =  8.7

     negative rho (up, down):  3.408E-03 3.952E-03

     total cpu time spent up to now is      316.9 secs

     total energy              =   -1133.81708367 Ry
     estimated scf accuracy    <       0.00443807 Ry

     total magnetization       =    10.00 Bohr mag/cell
     absolute magnetization    =    10.01 Bohr mag/cell

     iteration #  8     ecut=    48.00 Ry     beta= 0.50
     Davidson diagonalization with overlap
     ethr =  2.84E-06,  avg # of iterations =  7.9

     negative rho (up, down):  3.250E-03 3.870E-03

     total cpu time spent up to now is      361.8 secs

     total energy              =   -1133.81772749 Ry
     estimated scf accuracy    <       0.00108613 Ry

     total magnetization       =    10.00 Bohr mag/cell
     absolute magnetization    =    10.01 Bohr mag/cell

     iteration #  9     ecut=    48.00 Ry     beta= 0.50
     Davidson diagonalization with overlap
     ethr =  6.96E-07,  avg # of iterations =  3.8

     negative rho (up, down):  3.175E-03 3.852E-03

     total cpu time spent up to now is      397.0 secs

     total energy              =   -1133.81789178 Ry
     estimated scf accuracy    <       0.00010039 Ry

     total magnetization       =    10.00 Bohr mag/cell
     absolute magnetization    =    10.01 Bohr mag/cell

     iteration # 10     ecut=    48.00 Ry     beta= 0.50
     Davidson diagonalization with overlap
     ethr =  6.44E-08,  avg # of iterations =  4.0

     negative rho (up, down):  3.159E-03 3.860E-03

     total cpu time spent up to now is      440.3 secs

     total energy              =   -1133.81794735 Ry
     estimated scf accuracy    <       0.00001919 Ry

     total magnetization       =    10.00 Bohr mag/cell
     absolute magnetization    =    10.01 Bohr mag/cell

     iteration # 11     ecut=    48.00 Ry     beta= 0.50
     Davidson diagonalization with overlap
     ethr =  1.23E-08,  avg # of iterations =  3.8

     negative rho (up, down):  3.152E-03 3.869E-03

     total cpu time spent up to now is      477.3 secs

     total energy              =   -1133.81796174 Ry
     estimated scf accuracy    <       0.00000405 Ry

     total magnetization       =    10.00 Bohr mag/cell
     absolute magnetization    =    10.01 Bohr mag/cell

     iteration # 12     ecut=    48.00 Ry     beta= 0.50
     Davidson diagonalization with overlap
     ethr =  2.60E-09,  avg # of iterations =  4.2

     negative rho (up, down):  3.149E-03 3.876E-03

     total cpu time spent up to now is      514.0 secs

     total energy              =   -1133.81796619 Ry
     estimated scf accuracy    <       0.00000150 Ry

     total magnetization       =    10.00 Bohr mag/cell
     absolute magnetization    =    10.01 Bohr mag/cell

     iteration # 13     ecut=    48.00 Ry     beta= 0.50
     Davidson diagonalization with overlap
     ethr =  9.63E-10,  avg # of iterations =  4.0

     negative rho (up, down):  3.147E-03 3.877E-03

     total cpu time spent up to now is      550.5 secs

     total energy              =   -1133.81796786 Ry
     estimated scf accuracy    <       0.00000026 Ry

     total magnetization       =    10.00 Bohr mag/cell
     absolute magnetization    =    10.01 Bohr mag/cell

     iteration # 14     ecut=    48.00 Ry     beta= 0.50
     Davidson diagonalization with overlap
     ethr =  1.67E-10,  avg # of iterations =  4.5

     negative rho (up, down):  3.146E-03 3.878E-03
 
     Magnetic moment per site:
     atom:    1    charge:    0.8806    magn:    0.0004    constr:    0.0000
     atom:    2    charge:    0.8802    magn:    0.0009    constr:    0.0000
     atom:    3    charge:    0.8802    magn:    0.0001    constr:    0.0000
     atom:    4    charge:    0.8803    magn:    0.0001    constr:    0.0000
     atom:    5    charge:    0.8800    magn:    0.0001    constr:    0.0000
     atom:    6    charge:    0.8805    magn:    0.0001    constr:    0.0000
     atom:    7    charge:    2.8610    magn:    0.0004    constr:    0.0000
     atom:    8    charge:    2.8611    magn:    0.0071    constr:    0.0000
     atom:    9    charge:    2.8609    magn:    0.0003    constr:    0.0000
     atom:   10    charge:    2.8609    magn:    0.0002    constr:    0.0000
     atom:   11    charge:    2.8604    magn:    0.0055    constr:    0.0000
     atom:   12    charge:    2.8610    magn:    0.0011    constr:    0.0000
     atom:   13    charge:    2.8596    magn:    0.0037    constr:    0.0000
     atom:   14    charge:    2.8597    magn:    0.0010    constr:    0.0000
     atom:   15    charge:    2.8600    magn:    0.0000    constr:    0.0000
     atom:   16    charge:    0.8807    magn:   -0.0000    constr:    0.0000
     atom:   17    charge:    0.8799    magn:    0.0009    constr:    0.0000
     atom:   18    charge:    0.8802    magn:    0.0001    constr:    0.0000
     atom:   19    charge:    0.8794    magn:    0.0001    constr:    0.0000
     atom:   20    charge:    0.8800    magn:    0.0004    constr:    0.0000
     atom:   21    charge:    0.8804    magn:   -0.0000    constr:    0.0000
     atom:   22    charge:    2.8609    magn:    0.0037    constr:    0.0000
     atom:   23    charge:    0.8803    magn:    0.0001    constr:    0.0000
     atom:   24    charge:    0.8789    magn:   -0.0002    constr:    0.0000
     atom:   25    charge:    0.8799    magn:    0.0001    constr:    0.0000
     atom:   26    charge:    2.8598    magn:    0.0011    constr:    0.0000
     atom:   27    charge:    2.8599    magn:    0.0071    constr:    0.0000
     atom:   28    charge:    2.8598    magn:    0.0006    constr:    0.0000
     atom:   29    charge:    2.8596    magn:    0.0006    constr:    0.0000
     atom:   30    charge:    2.8596    magn:    0.0003    constr:    0.0000
     atom:   31    charge:    2.8596    magn:    0.0002    constr:    0.0000
     atom:   32    charge:    0.8802    magn:    0.0001    constr:    0.0000
     atom:   33    charge:   12.2614    magn:    4.0520    constr:    0.0000
     atom:   34    charge:   12.2614    magn:    4.0520    constr:    0.0000

     total cpu time spent up to now is      588.6 secs

     End of self-consistent calculation

 ------ SPIN UP ------------


          k = 0.1667 0.2887 0.0000 ( 59267 PWs)   bands (ev):

   -72.9104 -72.8868 -44.5286 -44.3398 -44.3006 -44.2805 -44.2740 -44.2539
   -21.2469 -20.6613 -20.6551 -20.1039 -20.0971 -19.5877 -19.5828 -19.0996
   -18.6985 -18.6906 -18.4572 -18.4511 -18.1951 -18.0856 -18.0782 -17.8498
   -12.4839 -12.2065 -12.2017 -11.8210 -11.8178 -11.6587 -11.1924 -11.1885
   -10.3919 -10.3677 -10.1185 -10.1143  -9.5896  -9.5876  -8.8380  -8.8254
    -8.8227  -8.7663  -8.7619  -8.5966  -8.1972  -8.0580  -8.0094  -7.8294
    -7.8271  -7.4394  -7.4364  -7.2797  -7.2613  -7.2083  -7.2065  -6.9609
    -6.9553  -6.5722  -6.5319  -6.1540  -6.1530  -5.8722  -5.4187  -5.2985
    -5.2728  -5.2004  -4.9106  -4.9025  -4.5086  -4.3574  -4.3393  -3.9800
    -3.1120  -2.2653  -2.2425  -1.9866  -1.6953  -1.6386  -1.4423  -1.4252
    -1.2876  -1.2634  -1.2153  -0.5889   0.6406   0.8943   1.0233   1.2101
     1.3103   1.4881   1.5259   1.5763   1.6139   1.7980

          k = 0.1667-0.4811 0.0000 ( 59291 PWs)   bands (ev):

   -72.9105 -72.8868 -44.5286 -44.3398 -44.3006 -44.2805 -44.2740 -44.2539
   -21.1164 -20.9122 -20.7228 -20.1609 -19.8043 -19.4666 -19.3172 -19.1747
   -19.0145 -18.7787 -18.6416 -18.5445 -18.1492 -18.0896 -17.9222 -17.7241
   -12.3480 -12.1132 -12.0447 -11.9064 -11.6807 -11.6588 -11.5527 -10.9422
   -10.8901 -10.6234 -10.5232  -9.8604  -9.6933  -9.3362  -9.1110  -8.6691
    -8.6229  -8.5532  -8.3891  -8.3681  -8.1616  -8.1215  -8.0629  -8.0502
    -7.6888  -7.6235  -7.4943  -7.4744  -7.3560  -7.1710  -7.0679  -6.8609
    -6.6222  -6.3894  -6.1793  -6.1580  -5.9713  -5.9294  -5.7838  -5.7461
    -5.4516  -5.3966  -5.2099  -5.0423  -4.4457  -4.3484  -4.0890  -3.7678
    -3.1101  -2.2650  -2.2433  -1.9830  -1.6939  -1.6386  -1.4440  -1.4259
    -1.2880  -1.2630  -1.2169  -0.5936   0.5549   0.8947   1.0452   1.1203
     1.2457   1.2834   1.4096   1.8442   1.9240   2.1208

          k = 0.1667-0.0962 0.0000 ( 59226 PWs)   bands (ev):

   -72.9104 -72.8868 -44.5286 -44.3398 -44.3006 -44.2805 -44.2740 -44.2539
   -21.3133 -20.5356 -20.3472 -20.3373 -19.9907 -19.9786 -19.8060 -18.7317
   -18.7201 -18.3759 -18.3682 -18.3545 -18.2691 -18.2621 -18.0791 -18.0702
   -12.5073 -12.5023 -12.4081 -11.5824 -11.5751 -11.4265 -11.4207 -10.9267
   -10.9232  -9.9298  -9.9257  -9.6757  -9.3748  -9.3724  -9.2306  -9.2279
    -9.0423  -9.0403  -8.9243  -8.3243  -8.3210  -7.9016  -7.8995  -7.8815
    -7.8451  -7.7705  -7.6120  -7.5791  -7.1399  -7.0871  -6.9594  -6.8889
    -6.8848  -6.8508  -6.5324  -6.5275  -6.2576  -5.3560  -5.3125  -5.1435
    -5.0654  -4.8103  -4.8013  -4.7490  -4.6145  -4.6071  -4.3570  -4.3284
    -3.1143  -2.2655  -2.2419  -1.9901  -1.6976  -1.6386  -1.4409  -1.4244
    -1.2871  -1.2638  -1.2139  -0.5841   0.7519   0.8637   0.9803   1.2164
     1.2584   1.3577   1.5869   1.6081   1.7412   1.9832

          k =-0.5000-0.8660 0.0000 ( 59292 PWs)   bands (ev):

   -72.9104 -72.8868 -44.5286 -44.3398 -44.3006 -44.2806 -44.2740 -44.2539
   -21.0511 -21.0452 -20.4717 -20.4618 -19.4295 -19.4196 -19.4123 -19.4087
   -18.9932 -18.9883 -18.3264 -18.3189 -18.3178 -18.3134 -17.7960 -17.7867
   -12.0716 -12.0648 -12.0633 -12.0608 -11.8803 -11.8710 -11.3301 -11.3265
   -10.2362 -10.2302 -10.1361 -10.1334 -10.1290 -10.1255  -8.5968  -8.5491
    -8.5477  -8.5436  -8.5424  -8.5356  -7.8656  -7.8635  -7.8586  -7.8564
    -7.8250  -7.8198  -7.7848  -7.7497  -7.4898  -7.4869  -6.6134  -6.6059
    -6.3603  -6.3369  -6.3019  -6.2934  -6.1900  -6.1879  -5.7132  -5.6951
    -5.5459  -5.5418  -4.7333  -4.7263  -4.6915  -4.6866  -3.8922  -3.8644
    -3.1025  -2.2639  -2.2433  -1.9841  -1.6958  -1.6384  -1.4420  -1.4266
    -1.2943  -1.2666  -1.2194  -0.7031   0.7175   1.0112   1.0958   1.1346
     1.3948   1.5808   1.5940   1.6097   1.7588   1.8152

          k =-0.1667 0.2887 0.0000 ( 59267 PWs)   bands (ev):

   -72.9104 -72.8868 -44.5286 -44.3398 -44.3006 -44.2805 -44.2740 -44.2539
   -21.2469 -20.6613 -20.6550 -20.1040 -20.0971 -19.5877 -19.5828 -19.0996
   -18.6985 -18.6906 -18.4572 -18.4511 -18.1951 -18.0856 -18.0782 -17.8498
   -12.4839 -12.2065 -12.2017 -11.8210 -11.8178 -11.6587 -11.1924 -11.1885
   -10.3919 -10.3677 -10.1185 -10.1143  -9.5896  -9.5876  -8.8380  -8.8254
    -8.8227  -8.7664  -8.7620  -8.5966  -8.1973  -8.0580  -8.0094  -7.8294
    -7.8271  -7.4394  -7.4365  -7.2797  -7.2613  -7.2083  -7.2065  -6.9610
    -6.9553  -6.5722  -6.5319  -6.1540  -6.1529  -5.8722  -5.4188  -5.2985
    -5.2728  -5.2003  -4.9106  -4.9025  -4.5086  -4.3574  -4.3393  -3.9800
    -3.1120  -2.2653  -2.2425  -1.9866  -1.6953  -1.6386  -1.4423  -1.4252
    -1.2876  -1.2633  -1.2153  -0.5889   0.6405   0.8943   1.0233   1.2102
     1.3103   1.4881   1.5260   1.5762   1.6139   1.7980

          k = 0.3333 0.0000 0.0000 ( 59267 PWs)   bands (ev):

   -72.9104 -72.8868 -44.5286 -44.3398 -44.3006 -44.2805 -44.2740 -44.2539
   -21.2464 -20.6853 -20.6310 -20.1054 -20.0940 -19.6130 -19.5595 -19.1017
   -18.7135 -18.6705 -18.4612 -18.4490 -18.1905 -18.1081 -18.0625 -17.8490
   -12.4837 -12.2084 -12.1995 -11.8293 -11.8117 -11.6565 -11.2098 -11.1719
   -10.3911 -10.3674 -10.1303 -10.1028  -9.5954  -9.5807  -8.8454  -8.8232
    -8.8149  -8.7879  -8.7418  -8.5975  -8.1990  -8.1017  -7.9653  -7.8285
    -7.8260  -7.4447  -7.4304  -7.2939  -7.2418  -7.2179  -7.1968  -6.9641
    -6.9537  -6.6175  -6.4935  -6.1567  -6.1494  -5.8789  -5.4186  -5.3116
    -5.2490  -5.2006  -4.9209  -4.8946  -4.5004  -4.3829  -4.3261  -3.9784
    -3.1073  -2.2642  -2.2424  -1.9874  -1.6976  -1.6384  -1.4408  -1.4256
    -1.2915  -1.2658  -1.2168  -0.6654   0.7614   0.9899   1.0777   1.2369
     1.3321   1.5058   1.5287   1.5631   1.5929   1.8563

          k =-0.1667-0.4811 0.0000 ( 59291 PWs)   bands (ev):

   -72.9105 -72.8868 -44.5286 -44.3398 -44.3006 -44.2805 -44.2740 -44.2539
   -21.1164 -20.9122 -20.7228 -20.1609 -19.8044 -19.4666 -19.3172 -19.1747
   -19.0145 -18.7787 -18.6416 -18.5445 -18.1492 -18.0896 -17.9222 -17.7241
   -12.3481 -12.1132 -12.0447 -11.9064 -11.6807 -11.6588 -11.5527 -10.9422
   -10.8901 -10.6234 -10.5232  -9.8603  -9.6933  -9.3363  -9.1110  -8.6691
    -8.6229  -8.5532  -8.3891  -8.3681  -8.1615  -8.1215  -8.0629  -8.0502
    -7.6887  -7.6235  -7.4942  -7.4744  -7.3560  -7.1710  -7.0678  -6.8609
    -6.6223  -6.3894  -6.1793  -6.1580  -5.9713  -5.9293  -5.7838  -5.7461
    -5.4517  -5.3966  -5.2099  -5.0423  -4.4457  -4.3484  -4.0890  -3.7678
    -3.1101  -2.2650  -2.2433  -1.9830  -1.6939  -1.6386  -1.4440  -1.4259
    -1.2880  -1.2630  -1.2169  -0.5936   0.5550   0.8947   1.0452   1.1203
     1.2457   1.2834   1.4096   1.8443   1.9240   2.1210

          k = 0.5000-0.0962 0.0000 ( 59291 PWs)   bands (ev):

   -72.9104 -72.8868 -44.5286 -44.3398 -44.3006 -44.2805 -44.2740 -44.2539
   -21.1138 -20.9196 -20.7181 -20.1590 -19.8044 -19.4688 -19.3227 -19.1698
   -19.0155 -18.7799 -18.6311 -18.5505 -18.1370 -18.1061 -17.9195 -17.7237
   -12.3471 -12.1137 -12.0427 -11.9103 -11.6924 -11.6445 -11.5550 -10.9424
   -10.8881 -10.6218 -10.5256  -9.8580  -9.6940  -9.3373  -9.1104  -8.6594
    -8.6235  -8.5511  -8.3990  -8.3912  -8.1596  -8.1031  -8.0759  -8.0386
    -7.6848  -7.6240  -7.4934  -7.4755  -7.3499  -7.1724  -7.0687  -6.8601
    -6.6226  -6.3987  -6.1944  -6.1574  -5.9570  -5.9286  -5.7831  -5.7488
    -5.4527  -5.3978  -5.1872  -5.0557  -4.4252  -4.3746  -4.0863  -3.7670
    -3.1026  -2.2639  -2.2433  -1.9841  -1.6963  -1.6384  -1.4420  -1.4265
    -1.2943  -1.2666  -1.2194  -0.7028   0.7069   1.0063   1.0692   1.1626
     1.2935   1.3213   1.5998   1.7705   1.8919   1.9390

          k =-0.3333-0.3849 0.0000 ( 59291 PWs)   bands (ev):

   -72.9104 -72.8868 -44.5286 -44.3398 -44.3006 -44.2805 -44.2740 -44.2539
   -21.1147 -20.9170 -20.7199 -20.1588 -19.8065 -19.4667 -19.3176 -19.1735
   -19.0184 -18.7781 -18.6326 -18.5497 -18.1396 -18.1029 -17.9196 -17.7239
   -12.3476 -12.1118 -12.0449 -11.9094 -11.6815 -11.6567 -11.5539 -10.9423
   -10.8876 -10.6211 -10.5265  -9.8588  -9.6940  -9.3366  -9.1113  -8.6625
    -8.6222  -8.5532  -8.3908  -8.3860  -8.1611  -8.1103  -8.0631  -8.0526
    -7.6850  -7.6225  -7.4999  -7.4694  -7.3485  -7.1725  -7.0692  -6.8682
    -6.6207  -6.3908  -6.1791  -6.1596  -5.9690  -5.9275  -5.7832  -5.7573
    -5.4526  -5.3924  -5.1883  -5.0562  -4.4276  -4.3720  -4.0857  -3.7673
    -3.1051  -2.2644  -2.2433  -1.9837  -1.6952  -1.6385  -1.4427  -1.4264
    -1.2922  -1.2654  -1.2186  -0.6695   0.6542   0.9786   1.0753   1.1362
     1.2348   1.3834   1.4828   1.8229   1.9142   1.9448

          k = 0.5000 0.0962 0.0000 ( 59291 PWs)   bands (ev):

   -72.9104 -72.8868 -44.5286 -44.3398 -44.3006 -44.2805 -44.2740 -44.2539
   -21.1138 -20.9196 -20.7181 -20.1590 -19.8044 -19.4688 -19.3227 -19.1698
   -19.0155 -18.7799 -18.6311 -18.5505 -18.1370 -18.1061 -17.9195 -17.7237
   -12.3471 -12.1137 -12.0427 -11.9104 -11.6924 -11.6445 -11.5550 -10.9423
   -10.8881 -10.6218 -10.5256  -9.8580  -9.6940  -9.3373  -9.1104  -8.6594
    -8.6235  -8.5512  -8.3990  -8.3912  -8.1596  -8.1031  -8.0758  -8.0386
    -7.6848  -7.6239  -7.4934  -7.4755  -7.3499  -7.1725  -7.0686  -6.8601
    -6.6225  -6.3987  -6.1944  -6.1574  -5.9570  -5.9286  -5.7832  -5.7488
    -5.4527  -5.3978  -5.1871  -5.0557  -4.4251  -4.3745  -4.0863  -3.7670
    -3.1026  -2.2639  -2.2433  -1.9841  -1.6963  -1.6384  -1.4420  -1.4265
    -1.2943  -1.2666  -1.2194  -0.7028   0.7070   1.0063   1.0692   1.1626
     1.2934   1.3213   1.5998   1.7705   1.8918   1.9390

          k =-0.3333 0.3849 0.0000 ( 59291 PWs)   bands (ev):

   -72.9104 -72.8868 -44.5286 -44.3398 -44.3006 -44.2805 -44.2740 -44.2539
   -21.1147 -20.9170 -20.7199 -20.1588 -19.8065 -19.4667 -19.3176 -19.1735
   -19.0184 -18.7781 -18.6326 -18.5497 -18.1396 -18.1029 -17.9196 -17.7239
   -12.3475 -12.1118 -12.0449 -11.9094 -11.6815 -11.6567 -11.5539 -10.9423
   -10.8876 -10.6211 -10.5265  -9.8588  -9.6940  -9.3366  -9.1113  -8.6625
    -8.6223  -8.5531  -8.3909  -8.3860  -8.1611  -8.1103  -8.0631  -8.0526
    -7.6850  -7.6225  -7.4999  -7.4694  -7.3485  -7.1725  -7.0693  -6.8682
    -6.6207  -6.3908  -6.1791  -6.1597  -5.9690  -5.9276  -5.7831  -5.7573
    -5.4525  -5.3924  -5.1883  -5.0562  -4.4276  -4.3720  -4.0857  -3.7673
    -3.1051  -2.2644  -2.2433  -1.9837  -1.6952  -1.6385  -1.4427  -1.4264
    -1.2922  -1.2654  -1.2186  -0.6695   0.6542   0.9786   1.0753   1.1362
     1.2348   1.3834   1.4828   1.8230   1.9143   1.9448

          k =-0.1667-0.0962 0.0000 ( 59226 PWs)   bands (ev):

   -72.9104 -72.8868 -44.5286 -44.3398 -44.3006 -44.2805 -44.2740 -44.2539
   -21.3133 -20.5356 -20.3472 -20.3373 -19.9907 -19.9786 -19.8060 -18.7317
   -18.7201 -18.3759 -18.3682 -18.3545 -18.2691 -18.2621 -18.0791 -18.0702
   -12.5073 -12.5023 -12.4081 -11.5824 -11.5751 -11.4265 -11.4207 -10.9267
   -10.9232  -9.9299  -9.9257  -9.6757  -9.3748  -9.3724  -9.2306  -9.2279
    -9.0423  -9.0403  -8.9243  -8.3243  -8.3211  -7.9016  -7.8995  -7.8815
    -7.8451  -7.7705  -7.6120  -7.5792  -7.1398  -7.0871  -6.9594  -6.8889
    -6.8848  -6.8508  -6.5323  -6.5275  -6.2577  -5.3560  -5.3125  -5.1434
    -5.0655  -4.8103  -4.8013  -4.7490  -4.6144  -4.6071  -4.3570  -4.3284
    -3.1143  -2.2655  -2.2419  -1.9901  -1.6976  -1.6386  -1.4409  -1.4244
    -1.2871  -1.2638  -1.2139  -0.5841   0.7519   0.8637   0.9803   1.2164
     1.2584   1.3578   1.5869   1.6081   1.7413   1.9828

          k =-0.0000-0.1925 0.0000 ( 59226 PWs)   bands (ev):

   -72.9104 -72.8868 -44.5286 -44.3398 -44.3006 -44.2806 -44.2740 -44.2539
   -21.3134 -20.5307 -20.3524 -20.3407 -19.9861 -19.9758 -19.8094 -18.7296
   -18.7187 -18.3933 -18.3719 -18.3531 -18.2552 -18.2549 -18.0818 -18.0723
   -12.5092 -12.5004 -12.4081 -11.5834 -11.5759 -11.4264 -11.4175 -10.9276
   -10.9242  -9.9288  -9.9266  -9.6762  -9.3755  -9.3706  -9.2301  -9.2288
    -9.0421  -9.0409  -8.9249  -8.3237  -8.3208  -7.9007  -7.8986  -7.8658
    -7.8440  -7.7722  -7.6269  -7.5963  -7.1092  -7.0924  -6.9581  -6.8898
    -6.8854  -6.8614  -6.5320  -6.5270  -6.2583  -5.3405  -5.3204  -5.1436
    -5.0653  -4.8365  -4.8075  -4.7522  -4.5958  -4.5893  -4.3536  -4.3402
    -3.1166  -2.2661  -2.2420  -1.9897  -1.6965  -1.6387  -1.4417  -1.4242
    -1.2852  -1.2626  -1.2132  -0.5391   0.6656   0.8147   0.9713   1.1874
     1.2556   1.3812   1.5881   1.6227   1.6908   2.0075

          k = 0.5000-0.8660 0.0000 ( 59292 PWs)   bands (ev):

   -72.9104 -72.8868 -44.5286 -44.3398 -44.3006 -44.2806 -44.2740 -44.2539
   -21.0511 -21.0452 -20.4717 -20.4618 -19.4295 -19.4196 -19.4123 -19.4087
   -18.9932 -18.9883 -18.3265 -18.3189 -18.3177 -18.3134 -17.7959 -17.7867
   -12.0716 -12.0647 -12.0633 -12.0609 -11.8803 -11.8710 -11.3301 -11.3265
   -10.2363 -10.2302 -10.1361 -10.1334 -10.1290 -10.1255  -8.5968  -8.5490
    -8.5477  -8.5436  -8.5424  -8.5356  -7.8656  -7.8635  -7.8585  -7.8565
    -7.8251  -7.8198  -7.7847  -7.7497  -7.4899  -7.4869  -6.6134  -6.6059
    -6.3603  -6.3369  -6.3019  -6.2934  -6.1899  -6.1879  -5.7133  -5.6951
    -5.5460  -5.5418  -4.7334  -4.7262  -4.6914  -4.6866  -3.8922  -3.8644
    -3.1025  -2.2639  -2.2433  -1.9841  -1.6958  -1.6384  -1.4420  -1.4266
    -1.2943  -1.2666  -1.2194  -0.7031   0.7175   1.0112   1.0958   1.1346
     1.3949   1.5808   1.5940   1.6097   1.7588   1.8149

          k =-1.0000 0.0000 0.0000 ( 59292 PWs)   bands (ev):

   -72.9105 -72.8868 -44.5286 -44.3398 -44.3006 -44.2805 -44.2740 -44.2538
   -21.0740 -21.0196 -20.4748 -20.4634 -19.4238 -19.4202 -19.4190 -19.4014
   -19.0124 -18.9704 -18.3705 -18.3350 -18.2916 -18.2805 -17.7969 -17.7873
   -12.1016 -12.0809 -12.0393 -12.0347 -11.8807 -11.8714 -11.3502 -11.3087
   -10.2416 -10.2390 -10.1318 -10.1305 -10.1250 -10.1241  -8.6330  -8.5742
    -8.5575  -8.5278  -8.5171  -8.4911  -7.8740  -7.8686  -7.8606  -7.8604
    -7.8151  -7.8140  -7.7861  -7.7630  -7.5133  -7.4656  -6.6117  -6.6048
    -6.3511  -6.3352  -6.3050  -6.2832  -6.2081  -6.1723  -5.7369  -5.6773
    -5.5661  -5.5220  -4.7946  -4.7536  -4.6490  -4.6441  -3.8858  -3.8724
    -3.1127  -2.2651  -2.2431  -1.9827  -1.6933  -1.6387  -1.4446  -1.4257
    -1.2859  -1.2619  -1.2161  -0.5499   0.5152   0.8325   1.0361   1.1209
     1.1905   1.5545   1.5846   1.6006   1.6418   1.9278

 ------ SPIN DOWN ----------


          k = 0.1667 0.2887 0.0000 ( 59267 PWs)   bands (ev):

   -68.7375 -68.7112 -40.5069 -40.2922 -40.1356 -40.1125 -40.0927 -40.0695
   -21.2430 -20.6565 -20.6524 -20.0999 -20.0936 -19.5828 -19.5802 -19.0956
   -18.6927 -18.6876 -18.4531 -18.4473 -18.1902 -18.0813 -18.0754 -17.8457
   -12.4817 -12.2038 -12.1994 -11.8185 -11.8159 -11.6566 -11.1894 -11.1865
   -10.3891 -10.3654 -10.1149 -10.1124  -9.5868  -9.5856  -8.8243  -8.8204
    -8.8157  -8.7633  -8.7603  -8.5943  -8.1949  -8.0329  -8.0007  -7.8269
    -7.8248  -7.4356  -7.4339  -7.2610  -7.2470  -7.2055  -7.2045  -6.9584
    -6.9530  -6.5500  -6.5245  -6.1512  -6.1506  -5.8558  -5.4157  -5.2747
    -5.2609  -5.1977  -4.8963  -4.8891  -4.4904  -4.3420  -4.3306  -3.9659
    -1.5067   0.4460   0.6831   0.8543   0.9469   1.1719   1.2500   1.3297
     1.3806   1.4844   1.5452   1.5886   1.6664   1.7341   1.8546   1.9422
     2.0640   2.1379   2.1537   2.2078   2.3306   2.3836

          k = 0.1667-0.4811 0.0000 ( 59291 PWs)   bands (ev):

   -68.7375 -68.7112 -40.5069 -40.2922 -40.1356 -40.1125 -40.0927 -40.0695
   -21.1123 -20.9089 -20.7190 -20.1570 -19.8006 -19.4627 -19.3133 -19.1707
   -19.0106 -18.7750 -18.6362 -18.5413 -18.1434 -18.0874 -17.9181 -17.7199
   -12.3458 -12.1108 -12.0424 -11.9042 -11.6785 -11.6564 -11.5504 -10.9395
   -10.8874 -10.6208 -10.5208  -9.8574  -9.6909  -9.3334  -9.1085  -8.6452
    -8.6204  -8.5503  -8.3869  -8.3558  -8.1592  -8.1050  -8.0605  -8.0480
    -7.6860  -7.6210  -7.4917  -7.4722  -7.3384  -7.1681  -7.0655  -6.8449
    -6.6190  -6.3737  -6.1623  -6.1554  -5.9566  -5.9262  -5.7811  -5.7304
    -5.4490  -5.3823  -5.1872  -5.0328  -4.4241  -4.3418  -4.0753  -3.7540
    -1.4984   0.4345   0.6774   0.8331   0.9773   1.0577   1.1662   1.2551
     1.3039   1.3783   1.6026   1.7272   1.7646   1.8434   1.8919   2.0979
     2.1454   2.1575   2.1885   2.2418   2.3125   2.3823

          k = 0.1667-0.0962 0.0000 ( 59226 PWs)   bands (ev):

   -68.7375 -68.7112 -40.5069 -40.2922 -40.1356 -40.1125 -40.0927 -40.0695
   -21.3095 -20.5313 -20.3434 -20.3341 -19.9859 -19.9753 -19.8027 -18.7265
   -18.7164 -18.3709 -18.3643 -18.3508 -18.2647 -18.2581 -18.0751 -18.0670
   -12.5048 -12.5002 -12.4058 -11.5799 -11.5732 -11.4238 -11.4184 -10.9241
   -10.9209  -9.9272  -9.9235  -9.6730  -9.3724  -9.3700  -9.2275  -9.2252
    -9.0400  -9.0379  -8.9053  -8.3211  -8.3181  -7.8990  -7.8969  -7.8594
    -7.8412  -7.7682  -7.5951  -7.5691  -7.1141  -7.0770  -6.9567  -6.8863
    -6.8827  -6.8405  -6.5296  -6.5252  -6.2552  -5.3312  -5.3011  -5.1406
    -5.0627  -4.7908  -4.7844  -4.7368  -4.6006  -4.5943  -4.3404  -4.3194
    -1.5150   0.4591   0.6879   0.8630   0.9192   1.1098   1.1997   1.2799
     1.4495   1.5404   1.6139   1.6895   1.7588   1.8290   1.8725   1.9173
     1.9892   2.0507   2.1216   2.2088   2.2784   2.3525

          k =-0.5000-0.8660 0.0000 ( 59292 PWs)   bands (ev):

   -68.7375 -68.7112 -40.5069 -40.2922 -40.1356 -40.1125 -40.0927 -40.0695
   -21.0460 -21.0426 -20.4678 -20.4586 -19.4240 -19.4155 -19.4093 -19.4053
   -18.9882 -18.9858 -18.3205 -18.3153 -18.3123 -18.3119 -17.7914 -17.7831
   -12.0678 -12.0620 -12.0615 -12.0596 -11.8778 -11.8694 -11.3272 -11.3246
   -10.2333 -10.2282 -10.1329 -10.1306 -10.1264 -10.1233  -8.5669  -8.5449
    -8.5436  -8.5418  -8.5411  -8.5282  -7.8628  -7.8607  -7.8565  -7.8543
    -7.8213  -7.8164  -7.7669  -7.7395  -7.4870  -7.4851  -6.6102  -6.6038
    -6.3316  -6.3152  -6.2924  -6.2837  -6.1868  -6.1854  -5.6951  -5.6858
    -5.5424  -5.5399  -4.7098  -4.7022  -4.6844  -4.6815  -3.8747  -3.8545
    -1.4796   0.2116   0.6807   0.8769   0.9548   1.0803   1.2329   1.3845
     1.5145   1.5279   1.5896   1.6623   1.7557   1.8300   1.9234   1.9237
     2.0103   2.0679   2.1909   2.2586   2.3218   2.3868

          k =-0.1667 0.2887 0.0000 ( 59267 PWs)   bands (ev):

   -68.7375 -68.7112 -40.5069 -40.2922 -40.1356 -40.1125 -40.0927 -40.0695
   -21.2430 -20.6565 -20.6524 -20.0999 -20.0936 -19.5828 -19.5802 -19.0956
   -18.6927 -18.6876 -18.4531 -18.4473 -18.1902 -18.0813 -18.0754 -17.8457
   -12.4817 -12.2038 -12.1994 -11.8185 -11.8159 -11.6566 -11.1894 -11.1865
   -10.3892 -10.3653 -10.1149 -10.1124  -9.5868  -9.5855  -8.8242  -8.8203
    -8.8157  -8.7633  -8.7603  -8.5942  -8.1950  -8.0329  -8.0007  -7.8269
    -7.8247  -7.4356  -7.4339  -7.2610  -7.2470  -7.2055  -7.2045  -6.9585
    -6.9531  -6.5500  -6.5245  -6.1512  -6.1505  -5.8558  -5.4157  -5.2747
    -5.2609  -5.1976  -4.8963  -4.8891  -4.4905  -4.3420  -4.3306  -3.9659
    -1.5067   0.4460   0.6831   0.8543   0.9469   1.1719   1.2500   1.3296
     1.3806   1.4844   1.5452   1.5886   1.6664   1.7341   1.8546   1.9422
     2.0640   2.1380   2.1536   2.2078   2.3303   2.3833

          k = 0.3333 0.0000 0.0000 ( 59267 PWs)   bands (ev):

   -68.7375 -68.7112 -40.5069 -40.2922 -40.1356 -40.1125 -40.0927 -40.0695
   -21.2427 -20.6797 -20.6291 -20.1017 -20.0904 -19.6072 -19.5576 -19.0974
   -18.7073 -18.6688 -18.4569 -18.4451 -18.1863 -18.1018 -18.0606 -17.8450
   -12.4814 -12.2062 -12.1969 -11.8269 -11.8097 -11.6546 -11.2062 -11.1703
   -10.3885 -10.3650 -10.1267 -10.1010  -9.5925  -9.5788  -8.8312  -8.8197
    -8.8074  -8.7844  -8.7406  -8.5950  -8.1965  -8.0721  -7.9613  -7.8260
    -7.8238  -7.4409  -7.4280  -7.2721  -7.2320  -7.2147  -7.1952  -6.9615
    -6.9513  -6.5901  -6.4892  -6.1538  -6.1472  -5.8604  -5.4156  -5.2901
    -5.2381  -5.1979  -4.9040  -4.8833  -4.4843  -4.3655  -4.3159  -3.9649
    -1.4947   0.2871   0.7093   0.8697   0.9363   1.0885   1.2839   1.4161
     1.4778   1.4922   1.5495   1.6733   1.7449   1.8073   1.8559   1.9608
     2.0211   2.1000   2.1474   2.2316   2.3427   2.3684

          k =-0.1667-0.4811 0.0000 ( 59291 PWs)   bands (ev):

   -68.7375 -68.7112 -40.5069 -40.2922 -40.1356 -40.1125 -40.0927 -40.0695
   -21.1123 -20.9089 -20.7190 -20.1570 -19.8006 -19.4627 -19.3133 -19.1707
   -19.0106 -18.7750 -18.6362 -18.5413 -18.1434 -18.0874 -17.9181 -17.7199
   -12.3458 -12.1108 -12.0424 -11.9042 -11.6785 -11.6564 -11.5504 -10.9395
   -10.8875 -10.6208 -10.5208  -9.8574  -9.6909  -9.3334  -9.1085  -8.6452
    -8.6203  -8.5503  -8.3868  -8.3558  -8.1591  -8.1050  -8.0605  -8.0481
    -7.6860  -7.6211  -7.4916  -7.4722  -7.3384  -7.1680  -7.0655  -6.8449
    -6.6190  -6.3737  -6.1623  -6.1555  -5.9566  -5.9262  -5.7811  -5.7304
    -5.4491  -5.3823  -5.1872  -5.0328  -4.4241  -4.3418  -4.0752  -3.7540
    -1.4984   0.4345   0.6774   0.8331   0.9773   1.0577   1.1662   1.2551
     1.3039   1.3782   1.6025   1.7272   1.7646   1.8434   1.8919   2.0980
     2.1454   2.1575   2.1885   2.2413   2.3123   2.3836

          k = 0.5000-0.0962 0.0000 ( 59291 PWs)   bands (ev):

   -68.7375 -68.7112 -40.5069 -40.2921 -40.1356 -40.1125 -40.0927 -40.0696
   -21.1099 -20.9154 -20.7149 -20.1553 -19.8007 -19.4646 -19.3181 -19.1665
   -19.0114 -18.7759 -18.6273 -18.5465 -18.1327 -18.1016 -17.9158 -17.7196
   -12.3448 -12.1114 -12.0406 -11.9079 -11.6896 -11.6430 -11.5524 -10.9398
   -10.8855 -10.6193 -10.5231  -9.8553  -9.6915  -9.3343  -9.1080  -8.6383
    -8.6208  -8.5484  -8.3910  -8.3761  -8.1574  -8.0919  -8.0723  -8.0374
    -7.6824  -7.6215  -7.4908  -7.4733  -7.3340  -7.1693  -7.0662  -6.8444
    -6.6194  -6.3795  -6.1737  -6.1550  -5.9465  -5.9256  -5.7804  -5.7322
    -5.4500  -5.3833  -5.1708  -5.0425  -4.4074  -4.3625  -4.0731  -3.7535
    -1.4797   0.2134   0.6806   0.8669   0.9569   1.0768   1.1604   1.2642
     1.3751   1.5521   1.6822   1.7698   1.8343   1.8712   1.9815   2.0144
     2.0638   2.1410   2.2109   2.2439   2.3260   2.3815

          k =-0.3333-0.3849 0.0000 ( 59291 PWs)   bands (ev):

   -68.7375 -68.7112 -40.5069 -40.2921 -40.1356 -40.1125 -40.0927 -40.0696
   -21.1108 -20.9132 -20.7165 -20.1551 -19.8025 -19.4628 -19.3137 -19.1696
   -19.0139 -18.7744 -18.6285 -18.5458 -18.1349 -18.0989 -17.9159 -17.7198
   -12.3453 -12.1095 -12.0427 -11.9069 -11.6794 -11.6545 -11.5515 -10.9397
   -10.8852 -10.6187 -10.5238  -9.8559  -9.6916  -9.3338  -9.1088  -8.6403
    -8.6197  -8.5501  -8.3881  -8.3689  -8.1588  -8.0970  -8.0605  -8.0502
    -7.6827  -7.6202  -7.4967  -7.4679  -7.3331  -7.1694  -7.0666  -6.8499
    -6.6176  -6.3745  -6.1628  -6.1565  -5.9546  -5.9247  -5.7806  -5.7385
    -5.4499  -5.3796  -5.1719  -5.0426  -4.4095  -4.3602  -4.0728  -3.7537
    -1.4860   0.2754   0.6712   0.8601   0.9631   1.0661   1.2083   1.2810
     1.3246   1.4536   1.6641   1.7590   1.8416   1.9294   1.9528   2.0291
     2.0583   2.1018   2.1632   2.2306   2.3345   2.3774

          k = 0.5000 0.0962 0.0000 ( 59291 PWs)   bands (ev):

   -68.7375 -68.7112 -40.5069 -40.2921 -40.1356 -40.1125 -40.0927 -40.0696
   -21.1099 -20.9154 -20.7149 -20.1553 -19.8007 -19.4646 -19.3181 -19.1665
   -19.0114 -18.7759 -18.6273 -18.5465 -18.1327 -18.1016 -17.9158 -17.7196
   -12.3448 -12.1114 -12.0406 -11.9079 -11.6896 -11.6430 -11.5524 -10.9398
   -10.8855 -10.6193 -10.5231  -9.8553  -9.6916  -9.3343  -9.1080  -8.6383
    -8.6208  -8.5485  -8.3910  -8.3761  -8.1574  -8.0919  -8.0723  -8.0373
    -7.6825  -7.6214  -7.4909  -7.4733  -7.3340  -7.1694  -7.0661  -6.8444
    -6.6193  -6.3795  -6.1737  -6.1549  -5.9465  -5.9256  -5.7805  -5.7322
    -5.4501  -5.3833  -5.1708  -5.0425  -4.4074  -4.3624  -4.0731  -3.7535
    -1.4797   0.2133   0.6806   0.8669   0.9569   1.0768   1.1604   1.2642
     1.3751   1.5521   1.6823   1.7698   1.8343   1.8712   1.9815   2.0143
     2.0637   2.1411   2.2111   2.2441   2.3257   2.3812

          k =-0.3333 0.3849 0.0000 ( 59291 PWs)   bands (ev):

   -68.7375 -68.7112 -40.5069 -40.2921 -40.1356 -40.1125 -40.0927 -40.0696
   -21.1108 -20.9132 -20.7165 -20.1551 -19.8025 -19.4628 -19.3137 -19.1696
   -19.0139 -18.7744 -18.6285 -18.5458 -18.1349 -18.0989 -17.9159 -17.7198
   -12.3453 -12.1095 -12.0428 -11.9069 -11.6794 -11.6545 -11.5515 -10.9398
   -10.8851 -10.6187 -10.5238  -9.8560  -9.6916  -9.3338  -9.1089  -8.6403
    -8.6198  -8.5500  -8.3882  -8.3689  -8.1588  -8.0970  -8.0605  -8.0502
    -7.6826  -7.6202  -7.4967  -7.4678  -7.3331  -7.1693  -7.0667  -6.8499
    -6.6177  -6.3745  -6.1628  -6.1566  -5.9545  -5.9248  -5.7805  -5.7385
    -5.4498  -5.3796  -5.1719  -5.0426  -4.4095  -4.3602  -4.0727  -3.7537
    -1.4860   0.2755   0.6712   0.8601   0.9630   1.0661   1.2083   1.2810
     1.3246   1.4536   1.6642   1.7590   1.8416   1.9293   1.9527   2.0291
     2.0584   2.1017   2.1631   2.2305   2.3346   2.3778

          k =-0.1667-0.0962 0.0000 ( 59226 PWs)   bands (ev):

   -68.7375 -68.7112 -40.5069 -40.2922 -40.1356 -40.1125 -40.0927 -40.0695
   -21.3095 -20.5313 -20.3434 -20.3341 -19.9859 -19.9753 -19.8027 -18.7265
   -18.7164 -18.3709 -18.3643 -18.3508 -18.2647 -18.2581 -18.0751 -18.0670
   -12.5048 -12.5002 -12.4058 -11.5798 -11.5732 -11.4238 -11.4184 -10.9241
   -10.9209  -9.9272  -9.9236  -9.6729  -9.3724  -9.3700  -9.2275  -9.2252
    -9.0400  -9.0380  -8.9053  -8.3212  -8.3182  -7.8990  -7.8969  -7.8594
    -7.8412  -7.7682  -7.5951  -7.5691  -7.1141  -7.0770  -6.9568  -6.8863
    -6.8826  -6.8405  -6.5295  -6.5252  -6.2552  -5.3312  -5.3011  -5.1405
    -5.0628  -4.7908  -4.7843  -4.7369  -4.6006  -4.5943  -4.3404  -4.3194
    -1.5150   0.4591   0.6879   0.8630   0.9192   1.1098   1.1997   1.2799
     1.4496   1.5404   1.6139   1.6895   1.7588   1.8290   1.8724   1.9173
     1.9890   2.0505   2.1218   2.2086   2.2781   2.3526

          k =-0.0000-0.1925 0.0000 ( 59226 PWs)   bands (ev):

   -68.7375 -68.7112 -40.5069 -40.2921 -40.1356 -40.1125 -40.0927 -40.0695
   -21.3096 -20.5271 -20.3480 -20.3372 -19.9823 -19.9725 -19.8057 -18.7250
   -18.7149 -18.3866 -18.3669 -18.3493 -18.2531 -18.2519 -18.0777 -18.0685
   -12.5072 -12.4979 -12.4057 -11.5808 -11.5737 -11.4242 -11.4152 -10.9249
   -10.9217  -9.9265  -9.9241  -9.6733  -9.3726  -9.3686  -9.2273  -9.2259
    -9.0396  -9.0386  -8.9057  -8.3208  -8.3178  -7.8982  -7.8964  -7.8505
    -7.8377  -7.7697  -7.6050  -7.5820  -7.0944  -7.0785  -6.9556  -6.8873
    -6.8830  -6.8483  -6.5295  -6.5247  -6.2557  -5.3219  -5.3048  -5.1407
    -5.0625  -4.8105  -4.7890  -4.7380  -4.5878  -4.5812  -4.3397  -4.3260
    -1.5207   0.5854   0.6661   0.8458   0.9248   1.1570   1.1655   1.2378
     1.4097   1.5003   1.5571   1.5950   1.7174   1.8187   1.8856   1.9457
     2.0637   2.0886   2.1202   2.1977   2.2649   2.3611

          k = 0.5000-0.8660 0.0000 ( 59292 PWs)   bands (ev):

   -68.7375 -68.7112 -40.5069 -40.2922 -40.1356 -40.1125 -40.0927 -40.0695
   -21.0460 -21.0426 -20.4678 -20.4586 -19.4240 -19.4155 -19.4093 -19.4053
   -18.9882 -18.9857 -18.3205 -18.3153 -18.3123 -18.3119 -17.7914 -17.7831
   -12.0678 -12.0620 -12.0615 -12.0597 -11.8778 -11.8693 -11.3272 -11.3245
   -10.2334 -10.2282 -10.1329 -10.1306 -10.1264 -10.1234  -8.5669  -8.5449
    -8.5436  -8.5417  -8.5411  -8.5282  -7.8628  -7.8606  -7.8565  -7.8543
    -7.8214  -7.8164  -7.7669  -7.7395  -7.4870  -7.4852  -6.6101  -6.6037
    -6.3316  -6.3152  -6.2924  -6.2837  -6.1868  -6.1852  -5.6951  -5.6858
    -5.5425  -5.5400  -4.7099  -4.7021  -4.6844  -4.6816  -3.8747  -3.8545
    -1.4796   0.2116   0.6808   0.8769   0.9549   1.0803   1.2330   1.3845
     1.5145   1.5279   1.5895   1.6624   1.7557   1.8299   1.9234   1.9238
     2.0105   2.0678   2.1908   2.2587   2.3210   2.3866

          k =-1.0000 0.0000 0.0000 ( 59292 PWs)   bands (ev):

   -68.7375 -68.7112 -40.5069 -40.2922 -40.1356 -40.1125 -40.0927 -40.0695
   -21.0686 -21.0177 -20.4705 -20.4599 -19.4197 -19.4164 -19.4148 -19.3982
   -19.0065 -18.9686 -18.3624 -18.3286 -18.2902 -18.2797 -17.7925 -17.7833
   -12.0982 -12.0774 -12.0379 -12.0339 -11.8784 -11.8695 -11.3465 -11.3072
   -10.2388 -10.2359 -10.1288 -10.1282 -10.1223 -10.1223  -8.6014  -8.5697
    -8.5545  -8.5266  -8.5163  -8.4872  -7.8707  -7.8655  -7.8581  -7.8574
    -7.8117  -7.8106  -7.7686  -7.7489  -7.5096  -7.4644  -6.6091  -6.6025
    -6.3280  -6.3145  -6.2940  -6.2738  -6.2040  -6.1704  -5.7180  -5.6666
    -5.5619  -5.5208  -4.7628  -4.7298  -4.6462  -4.6418  -3.8719  -3.8586
    -1.5044   0.5449   0.6956   0.8219   0.9874   1.0573   1.1478   1.2499
     1.3124   1.5010   1.5865   1.6417   1.6749   1.7463   1.8214   1.8583
     2.1168   2.1938   2.2144   2.2339   2.3177   2.3727

     the Fermi energy is    -1.1428 ev

!    total energy              =   -1133.81796830 Ry

     total all-electron energy =     -6753.493671 Ry
     estimated scf accuracy    <       0.00000002 Ry
     smearing contrib. (-TS)   =      -0.00000000 Ry
     internal energy E=F+TS    =   -1133.81796830 Ry

     The total energy is F=E-TS. E is the sum of the following terms:
     one-electron contribution =   -3964.30386965 Ry
     hartree contribution      =    2010.31907719 Ry
     xc contribution           =    -186.04206370 Ry
     ewald contribution        =    1365.58102728 Ry
     DFT-D3 Dispersion         =      -0.12497020 Ry
     one-center paw contrib.   =    -359.24716921 Ry

     total magnetization       =    10.00 Bohr mag/cell
     absolute magnetization    =    10.01 Bohr mag/cell

     convergence has been achieved in  14 iterations

     Writing output data file ./mytmp/Crdimer0.13-0.5.save/
 
     init_run     :     18.84s CPU     20.17s WALL (       1 calls)
     electrons    :    522.38s CPU    568.31s WALL (       1 calls)

     Called by init_run:
     wfcinit      :     13.79s CPU     14.58s WALL (       1 calls)
     potinit      :      1.54s CPU      1.62s WALL (       1 calls)
     hinit0       :      1.54s CPU      1.60s WALL (       1 calls)

     Called by electrons:
     c_bands      :    407.72s CPU    434.20s WALL (      14 calls)
     sum_band     :     80.92s CPU     92.58s WALL (      14 calls)
     v_of_rho     :      7.58s CPU      8.36s WALL (      15 calls)
     newd         :     18.31s CPU     25.34s WALL (      15 calls)
     PAW_pot      :      7.42s CPU      7.51s WALL (      15 calls)
     mix_rho      :      0.95s CPU      1.09s WALL (      14 calls)

     Called by c_bands:
     init_us_2    :      5.00s CPU      5.09s WALL (     870 calls)
     cegterg      :    395.38s CPU    421.74s WALL (     420 calls)

     Called by *egterg:
     cdiaghg      :     24.23s CPU     38.62s WALL (    2683 calls)
     h_psi        :    240.71s CPU    251.04s WALL (    2713 calls)
     s_psi        :     26.75s CPU     26.94s WALL (    2713 calls)
     g_psi        :      0.62s CPU      0.64s WALL (    2263 calls)

     Called by h_psi:
     h_psi:calbec :     28.83s CPU     29.55s WALL (    2713 calls)
     vloc_psi     :    182.45s CPU    191.83s WALL (    2713 calls)
     add_vuspsi   :     27.37s CPU     27.55s WALL (    2713 calls)

     General routines
     calbec       :     38.59s CPU     39.50s WALL (    3133 calls)
     fft          :      9.47s CPU     14.08s WALL (     369 calls)
     ffts         :      0.12s CPU      0.12s WALL (      58 calls)
     fftw         :    189.12s CPU    198.63s WALL (  247490 calls)
     interpolate  :      0.42s CPU      0.45s WALL (      30 calls)
 
     Parallel routines
     fft_scatt_xy :     30.67s CPU     31.90s WALL (  247917 calls)
     fft_scatt_yz :     80.05s CPU     89.21s WALL (  247917 calls)
 
     PWSCF        :   9m 3.30s CPU   9m53.18s WALL

 
   This run was terminated on:  13:54:16  31Mar2021            

=------------------------------------------------------------------------------=
   JOB DONE.
=------------------------------------------------------------------------------=
