
     Program PWSCF v.6.7MaX starts on 31Mar2021 at 13:24:35 

     This program is part of the open-source Quantum ESPRESSO suite
     for quantum simulation of materials; please cite
         "P. Giannozzi et al., J. Phys.:Condens. Matter 21 395502 (2009);
         "P. Giannozzi et al., J. Phys.:Condens. Matter 29 465901 (2017);
          URL http://www.quantum-espresso.org", 
     in publications or presentations arising from this work. More details at
     http://www.quantum-espresso.org/quote

     Parallel version (MPI), running on    48 processors

     MPI processes distributed on     1 nodes
     R & G space division:  proc/nbgrp/npool/nimage =      48
     Reading input from Crdimer0.13-0.3.scf.in

     Current dimensions of program PWSCF are:
     Max number of different atomic species (ntypx) = 10
     Max number of k-points (npk) =  40000
     Max angular momentum in pseudopotentials (lmaxx) =  3
     file N.pbe-n-kjpaw_psl.1.0.0.UPF: wavefunction(s)  2S renormalized
     file Cr.pbe-spn-kjpaw_psl.1.0.0.UPF: wavefunction(s)  3S 3P 3D renormalized
     file Cr.pbe-spn-kjpaw_psl.1.0.0.UPF: wavefunction(s)  3S 3P 3D renormalized

     --------------------------------------------
     Parameters for DFT-D3 Dispersion Correction:
     --------------------------------------------
       Reference C6 values for interpolation: 

         atom   Coordination number   C6
         B          0.000           214.36
         B          0.971           150.74
         B          1.944           106.23
         B          2.913            62.89
         B          4.586            56.06
         N          0.000            50.54
         N          0.994            44.25
         N          2.014            39.35
         N          2.990            31.16
         Cr1        0.000          1381.48
         Cr1        1.827           571.38
         Cr1       10.619           306.69
         Cr2        0.000          1381.48
         Cr2        1.827           571.38
         Cr2       10.619           306.69

       Values used:

         atom   Coordination number  R0_AB[au]  C6      C8
         B          3.338            3.039     62.89   2505.94
         B          3.335            3.039     62.89   2506.00
         B          3.338            3.039     62.89   2505.95
         B          3.335            3.039     62.89   2506.01
         B          3.381            3.039     62.86   2504.72
         B          3.335            3.039     62.89   2506.01
         N          3.134            2.478     31.22    688.69
         N          3.136            2.478     31.22    688.68
         N          3.140            2.478     31.22    688.65
         N          3.135            2.478     31.22    688.69
         N          3.157            2.478     31.21    688.50
         N          3.134            2.478     31.22    688.69
         N          3.147            2.478     31.21    688.58
         N          3.134            2.478     31.22    688.70
         N          3.134            2.478     31.22    688.70
         B          3.340            3.039     62.89   2505.88
         B          3.335            3.039     62.89   2506.00
         B          3.335            3.039     62.89   2506.01
         B          3.381            3.039     62.86   2504.72
         B          3.338            3.039     62.89   2505.94
         B          3.340            3.039     62.89   2505.88
         N          3.147            2.478     31.21    688.58
         B          3.335            3.039     62.89   2506.00
         B          3.344            3.039     62.89   2505.78
         B          3.337            3.039     62.89   2505.97
         N          3.134            2.478     31.22    688.69
         N          3.136            2.478     31.22    688.68
         N          3.134            2.478     31.22    688.70
         N          3.134            2.478     31.22    688.70
         N          3.140            2.478     31.22    688.65
         N          3.135            2.478     31.22    688.69
         B          3.337            3.039     62.89   2505.97
         Cr1        0.985            3.252    737.61  68073.17
         Cr2        0.985            3.252    737.61  68073.17

         Molecular C6 ( Ry / a.u.^6 ) =     70885.41


     Subspace diagonalization in iterative solution of the eigenvalue problem:
     one sub-group per band group will be used
     scalapack distributed-memory algorithm (size of sub-group:  6*  6 procs)

 
     Parallelization info
     --------------------
     sticks:   dense  smooth     PW     G-vecs:    dense   smooth      PW
     Min         235      98     26                36277     9874    1408
     Max         236      99     27                36282     9883    1425
     Sum       11311    4741   1285              1741401   474235   68095
 


     bravais-lattice index     =            4
     lattice parameter (alat)  =      18.9275  a.u.
     unit-cell volume          =   10553.3021 (a.u.)^3
     number of atoms/cell      =           34
     number of atomic types    =            4
     number of electrons       =       156.00
     number of Kohn-Sham states=           94
     kinetic-energy cutoff     =      48.0000  Ry
     charge density cutoff     =     457.0000  Ry
     scf convergence threshold =      1.0E-07
     mixing beta               =       0.5000
     number of iterations used =            8  plain     mixing
     Exchange-correlation= SLA  PW   PBX  PBC
                           (   1   4   3   4   0   0   0)

     celldm(1)=  18.927497  celldm(2)=   0.000000  celldm(3)=   1.797125
     celldm(4)=   0.000000  celldm(5)=   0.000000  celldm(6)=   0.000000

     crystal axes: (cart. coord. in units of alat)
               a(1) = (   1.000000   0.000000   0.000000 )  
               a(2) = (  -0.500000   0.866025   0.000000 )  
               a(3) = (   0.000000   0.000000   1.797125 )  

     reciprocal axes: (cart. coord. in units 2 pi/alat)
               b(1) = (  1.000000  0.577350  0.000000 )  
               b(2) = (  0.000000  1.154701  0.000000 )  
               b(3) = (  0.000000  0.000000  0.556444 )  


     PseudoPot. # 1 for B  read from file:
     /home/sf05/q-e-qe-6.7MaX-Release/pseudo/B.pbe-n-kjpaw_psl.1.0.0.UPF
     MD5 check sum: d9c678ba5d3b2fd7b74e61139c9288d8
     Pseudo is Projector augmented-wave + core cor, Zval =  3.0
     Generated using "atomic" code by A. Dal Corso  v.5.1.2
     Shape of augmentation charge: PSQ
     Using radial grid of 1059 points,  4 beta functions with: 
                l(1) =   0
                l(2) =   0
                l(3) =   1
                l(4) =   1
     Q(r) pseudized with 0 coefficients 


     PseudoPot. # 2 for N  read from file:
     /home/sf05/q-e-qe-6.7MaX-Release/pseudo/N.pbe-n-kjpaw_psl.1.0.0.UPF
     MD5 check sum: e0e4e94a9c4025c5b51bd7d8793849bd
     Pseudo is Projector augmented-wave + core cor, Zval =  5.0
     Generated using "atomic" code by A. Dal Corso  v.5.1.2
     Shape of augmentation charge: PSQ
     Using radial grid of 1085 points,  4 beta functions with: 
                l(1) =   0
                l(2) =   0
                l(3) =   1
                l(4) =   1
     Q(r) pseudized with 0 coefficients 


     PseudoPot. # 3 for Cr read from file:
     /home/sf05/q-e-qe-6.7MaX-Release/pseudo/Cr.pbe-spn-kjpaw_psl.1.0.0.UPF
     MD5 check sum: 198f1a2427a48552563eee314eba32ba
     Pseudo is Projector augmented-wave + core cor, Zval = 14.0
     Generated using &quot;atomic&quot; code by A. Dal Corso  v.6.3
     Shape of augmentation charge: PSQ
     Using radial grid of 1183 points,  6 beta functions with: 
                l(1) =   0
                l(2) =   0
                l(3) =   1
                l(4) =   1
                l(5) =   2
                l(6) =   2
     Q(r) pseudized with 0 coefficients 


     PseudoPot. # 4 for Cr read from file:
     /home/sf05/q-e-qe-6.7MaX-Release/pseudo/Cr.pbe-spn-kjpaw_psl.1.0.0.UPF
     MD5 check sum: 198f1a2427a48552563eee314eba32ba
     Pseudo is Projector augmented-wave + core cor, Zval = 14.0
     Generated using &quot;atomic&quot; code by A. Dal Corso  v.6.3
     Shape of augmentation charge: PSQ
     Using radial grid of 1183 points,  6 beta functions with: 
                l(1) =   0
                l(2) =   0
                l(3) =   1
                l(4) =   1
                l(5) =   2
                l(6) =   2
     Q(r) pseudized with 0 coefficients 


     atomic species   valence    mass     pseudopotential
        B              3.00    10.81100     B ( 1.00)
        N              5.00    14.00674     N ( 1.00)
        Cr1           14.00    51.99610     Cr( 1.00)
        Cr2           14.00    51.99610     Cr( 1.00)

     Starting magnetic structure 
     atomic species   magnetization
        B            0.000
        N            0.000
        Cr1          1.000
        Cr2          1.000

     No symmetry found



   Cartesian axes

     site n.     atom                  positions (alat units)
         1           B   tau(   1) = (  -0.1250000   0.2165064   0.8985623  )
         2           B   tau(   2) = (   0.3750000   0.6495191   0.8985623  )
         3           B   tau(   3) = (   0.2500000   0.0000000   0.8985623  )
         4           B   tau(   4) = (   0.7500000   0.0000000   0.8985623  )
         5           B   tau(   5) = (   0.1250000   0.2165064   0.8985623  )
         6           B   tau(   6) = (  -0.3750000   0.6495191   0.8985623  )
         7           N   tau(   7) = (   0.7500005   0.2886748   0.8985623  )
         8           N   tau(   8) = (   0.3750005   0.5051812   0.8985623  )
         9           N   tau(   9) = (   0.3750005   0.0721685   0.8985623  )
        10           N   tau(  10) = (   0.6250005   0.0721685   0.8985623  )
        11           N   tau(  11) = (   0.2500005   0.2886748   0.8985623  )
        12           N   tau(  12) = (   0.6250005   0.5051812   0.8985623  )
        13           N   tau(  13) = (   0.0000005   0.2886748   0.8985623  )
        14           N   tau(  14) = (   0.2500005   0.7216875   0.8985623  )
        15           N   tau(  15) = (  -0.2499995   0.7216875   0.8985623  )
        16           B   tau(  16) = (   0.0000000   0.4330127   0.8985623  )
        17           B   tau(  17) = (   0.1250000   0.6495191   0.8985623  )
        18           B   tau(  18) = (  -0.1250000   0.6495191   0.8985623  )
        19           B   tau(  19) = (   0.3750000   0.2165064   0.8985623  )
        20           B   tau(  20) = (   0.6250000   0.2165064   0.8985623  )
        21           B   tau(  21) = (   0.5000000   0.4330127   0.8985623  )
        22           N   tau(  22) = (   0.5000005   0.2886748   0.8985623  )
        23           B   tau(  23) = (  -0.2500000   0.4330127   0.8985623  )
        24           B   tau(  24) = (   0.2500000   0.4330127   0.8985623  )
        25           B   tau(  25) = (   0.5000000   0.0000000   0.8985623  )
        26           N   tau(  26) = (  -0.1249995   0.5051812   0.8985623  )
        27           N   tau(  27) = (   0.1250005   0.5051812   0.8985623  )
        28           N   tau(  28) = (   0.0000005   0.7216875   0.8985623  )
        29           N   tau(  29) = (   0.5000005   0.7216875   0.8985623  )
        30           N   tau(  30) = (   0.1250005   0.0721685   0.8985623  )
        31           N   tau(  31) = (   0.8750005   0.0721685   0.8985623  )
        32           B   tau(  32) = (   0.0000000   0.0000000   0.8985623  )
        33           Cr1 tau(  33) = (   0.3800000   0.2598076   1.2040735  )
        34           Cr2 tau(  34) = (   0.1200000   0.2598076   1.2040735  )

     number of k points=    15  Gaussian smearing, width (Ry)=  0.0000
                       cart. coord. in units 2pi/alat
        k(    1) = (   0.1666667   0.2886751   0.0000000), wk =   0.0740741
        k(    2) = (   0.1666667  -0.4811252   0.0000000), wk =   0.0740741
        k(    3) = (   0.1666667  -0.0962250   0.0000000), wk =   0.0740741
        k(    4) = (  -0.5000000  -0.8660254   0.0000000), wk =   0.0370370
        k(    5) = (  -0.1666667   0.2886751   0.0000000), wk =   0.0740741
        k(    6) = (   0.3333333   0.0000000   0.0000000), wk =   0.0740741
        k(    7) = (  -0.1666667  -0.4811252   0.0000000), wk =   0.0740741
        k(    8) = (   0.5000000  -0.0962250   0.0000000), wk =   0.0740741
        k(    9) = (  -0.3333333  -0.3849002   0.0000000), wk =   0.0740741
        k(   10) = (   0.5000000   0.0962250   0.0000000), wk =   0.0740741
        k(   11) = (  -0.3333333   0.3849002   0.0000000), wk =   0.0740741
        k(   12) = (  -0.1666667  -0.0962250   0.0000000), wk =   0.0740741
        k(   13) = (  -0.0000000  -0.1924501   0.0000000), wk =   0.0740741
        k(   14) = (   0.5000000  -0.8660254   0.0000000), wk =   0.0370370
        k(   15) = (  -1.0000000   0.0000000   0.0000000), wk =   0.0370370

     Dense  grid:  1741401 G-vectors     FFT dimensions: ( 135, 135, 240)

     Smooth grid:   474235 G-vectors     FFT dimensions: (  90,  90, 160)

     Estimated max dynamical RAM per process >     218.62 MB

     Estimated total dynamical RAM >      10.25 GB
     Generating pointlists ...
     new r_m :   0.0595 (alat units)  1.1269 (a.u.) for type    1
     new r_m :   0.0595 (alat units)  1.1269 (a.u.) for type    2
     new r_m :   0.1072 (alat units)  2.0300 (a.u.) for type    3
     new r_m :   0.1072 (alat units)  2.0300 (a.u.) for type    4

     Initial potential from superposition of free atoms

     starting charge  155.99382, renormalised to  156.00000

     negative rho (up, down):  6.752E-03 4.655E-04
     Starting wfcs are  148 randomized atomic wfcs
     Checking if some PAW data can be deallocated... 

     total cpu time spent up to now is       20.6 secs

     Self-consistent Calculation

     iteration #  1     ecut=    48.00 Ry     beta= 0.50
     Davidson diagonalization with overlap
     ethr =  1.00E-02,  avg # of iterations =  2.8

     negative rho (up, down):  4.960E-03 2.909E-03

     total cpu time spent up to now is       64.3 secs

     total energy              =   -1130.70384812 Ry
     estimated scf accuracy    <      11.38876014 Ry

     total magnetization       =    12.00 Bohr mag/cell
     absolute magnetization    =    12.10 Bohr mag/cell

     iteration #  2     ecut=    48.00 Ry     beta= 0.50
     Davidson diagonalization with overlap
     ethr =  7.30E-03,  avg # of iterations =  2.8

     negative rho (up, down):  8.600E-03 7.369E-03

     total cpu time spent up to now is      105.1 secs

     total energy              =   -1133.01940256 Ry
     estimated scf accuracy    <       3.52703041 Ry

     total magnetization       =    10.00 Bohr mag/cell
     absolute magnetization    =    10.17 Bohr mag/cell

     iteration #  3     ecut=    48.00 Ry     beta= 0.50
     Davidson diagonalization with overlap
     ethr =  2.26E-03,  avg # of iterations =  6.9

     negative rho (up, down):  4.062E-03 3.517E-03

     total cpu time spent up to now is      146.3 secs

     total energy              =   -1133.55751017 Ry
     estimated scf accuracy    <       0.84845354 Ry

     total magnetization       =    10.00 Bohr mag/cell
     absolute magnetization    =    10.12 Bohr mag/cell

     iteration #  4     ecut=    48.00 Ry     beta= 0.50
     Davidson diagonalization with overlap
     ethr =  5.44E-04,  avg # of iterations =  6.3

     negative rho (up, down):  8.154E-03 8.055E-03

     total cpu time spent up to now is      185.7 secs

     total energy              =   -1133.73779514 Ry
     estimated scf accuracy    <       0.67388712 Ry

     total magnetization       =    10.00 Bohr mag/cell
     absolute magnetization    =    10.01 Bohr mag/cell

     iteration #  5     ecut=    48.00 Ry     beta= 0.50
     Davidson diagonalization with overlap
     ethr =  4.32E-04,  avg # of iterations =  6.3

     negative rho (up, down):  4.507E-03 4.637E-03

     total cpu time spent up to now is      227.2 secs

     total energy              =   -1133.80923650 Ry
     estimated scf accuracy    <       0.05652173 Ry

     total magnetization       =    10.00 Bohr mag/cell
     absolute magnetization    =    10.01 Bohr mag/cell

     iteration #  6     ecut=    48.00 Ry     beta= 0.50
     Davidson diagonalization with overlap
     ethr =  3.62E-05,  avg # of iterations = 10.2

     negative rho (up, down):  3.697E-03 4.041E-03

     total cpu time spent up to now is      274.3 secs

     total energy              =   -1133.81415176 Ry
     estimated scf accuracy    <       0.01643937 Ry

     total magnetization       =    10.00 Bohr mag/cell
     absolute magnetization    =    10.02 Bohr mag/cell

     iteration #  7     ecut=    48.00 Ry     beta= 0.50
     Davidson diagonalization with overlap
     ethr =  1.05E-05,  avg # of iterations =  7.2

     negative rho (up, down):  3.549E-03 4.011E-03

     total cpu time spent up to now is      316.0 secs

     total energy              =   -1133.81769584 Ry
     estimated scf accuracy    <       0.00395449 Ry

     total magnetization       =    10.00 Bohr mag/cell
     absolute magnetization    =    10.01 Bohr mag/cell

     iteration #  8     ecut=    48.00 Ry     beta= 0.50
     Davidson diagonalization with overlap
     ethr =  2.53E-06,  avg # of iterations =  7.7

     negative rho (up, down):  3.275E-03 3.864E-03

     total cpu time spent up to now is      358.6 secs

     total energy              =   -1133.81818738 Ry
     estimated scf accuracy    <       0.00087459 Ry

     total magnetization       =    10.00 Bohr mag/cell
     absolute magnetization    =    10.01 Bohr mag/cell

     iteration #  9     ecut=    48.00 Ry     beta= 0.50
     Davidson diagonalization with overlap
     ethr =  5.61E-07,  avg # of iterations =  3.5

     negative rho (up, down):  3.197E-03 3.846E-03

     total cpu time spent up to now is      393.4 secs

     total energy              =   -1133.81833334 Ry
     estimated scf accuracy    <       0.00009353 Ry

     total magnetization       =    10.00 Bohr mag/cell
     absolute magnetization    =    10.01 Bohr mag/cell

     iteration # 10     ecut=    48.00 Ry     beta= 0.50
     Davidson diagonalization with overlap
     ethr =  6.00E-08,  avg # of iterations =  4.2

     negative rho (up, down):  3.187E-03 3.857E-03

     total cpu time spent up to now is      437.0 secs

     total energy              =   -1133.81839168 Ry
     estimated scf accuracy    <       0.00002359 Ry

     total magnetization       =    10.00 Bohr mag/cell
     absolute magnetization    =    10.01 Bohr mag/cell

     iteration # 11     ecut=    48.00 Ry     beta= 0.50
     Davidson diagonalization with overlap
     ethr =  1.51E-08,  avg # of iterations =  3.1

     negative rho (up, down):  3.180E-03 3.864E-03

     total cpu time spent up to now is      472.9 secs

     total energy              =   -1133.81840638 Ry
     estimated scf accuracy    <       0.00000743 Ry

     total magnetization       =    10.00 Bohr mag/cell
     absolute magnetization    =    10.01 Bohr mag/cell

     iteration # 12     ecut=    48.00 Ry     beta= 0.50
     Davidson diagonalization with overlap
     ethr =  4.76E-09,  avg # of iterations =  4.3

     negative rho (up, down):  3.175E-03 3.866E-03

     total cpu time spent up to now is      509.5 secs

     total energy              =   -1133.81841140 Ry
     estimated scf accuracy    <       0.00000094 Ry

     total magnetization       =    10.00 Bohr mag/cell
     absolute magnetization    =    10.01 Bohr mag/cell

     iteration # 13     ecut=    48.00 Ry     beta= 0.50
     Davidson diagonalization with overlap
     ethr =  6.02E-10,  avg # of iterations =  4.1

     negative rho (up, down):  3.173E-03 3.866E-03

     total cpu time spent up to now is      547.1 secs

     total energy              =   -1133.81841260 Ry
     estimated scf accuracy    <       0.00000020 Ry

     total magnetization       =    10.00 Bohr mag/cell
     absolute magnetization    =    10.01 Bohr mag/cell

     iteration # 14     ecut=    48.00 Ry     beta= 0.50
     Davidson diagonalization with overlap
     ethr =  1.28E-10,  avg # of iterations =  4.3

     negative rho (up, down):  3.172E-03 3.866E-03
 
     Magnetic moment per site:
     atom:    1    charge:    0.8809    magn:    0.0007    constr:    0.0000
     atom:    2    charge:    0.8803    magn:    0.0002    constr:    0.0000
     atom:    3    charge:    0.8798    magn:    0.0003    constr:    0.0000
     atom:    4    charge:    0.8805    magn:    0.0001    constr:    0.0000
     atom:    5    charge:    0.8807    magn:    0.0005    constr:    0.0000
     atom:    6    charge:    0.8803    magn:    0.0001    constr:    0.0000
     atom:    7    charge:    2.8610    magn:    0.0001    constr:    0.0000
     atom:    8    charge:    2.8607    magn:    0.0019    constr:    0.0000
     atom:    9    charge:    2.8606    magn:    0.0050    constr:    0.0000
     atom:   10    charge:    2.8609    magn:    0.0007    constr:    0.0000
     atom:   11    charge:    2.8605    magn:    0.0092    constr:    0.0000
     atom:   12    charge:    2.8610    magn:    0.0003    constr:    0.0000
     atom:   13    charge:    2.8597    magn:    0.0053    constr:    0.0000
     atom:   14    charge:    2.8599    magn:    0.0003    constr:    0.0000
     atom:   15    charge:    2.8599    magn:    0.0000    constr:    0.0000
     atom:   16    charge:    0.8802    magn:    0.0004    constr:    0.0000
     atom:   17    charge:    0.8800    magn:    0.0002    constr:    0.0000
     atom:   18    charge:    0.8800    magn:    0.0001    constr:    0.0000
     atom:   19    charge:    0.8802    magn:    0.0005    constr:    0.0000
     atom:   20    charge:    0.8804    magn:    0.0007    constr:    0.0000
     atom:   21    charge:    0.8799    magn:    0.0004    constr:    0.0000
     atom:   22    charge:    2.8610    magn:    0.0053    constr:    0.0000
     atom:   23    charge:    0.8802    magn:    0.0002    constr:    0.0000
     atom:   24    charge:    0.8793    magn:    0.0003    constr:    0.0000
     atom:   25    charge:    0.8800    magn:    0.0003    constr:    0.0000
     atom:   26    charge:    2.8599    magn:    0.0003    constr:    0.0000
     atom:   27    charge:    2.8596    magn:    0.0019    constr:    0.0000
     atom:   28    charge:    2.8598    magn:    0.0002    constr:    0.0000
     atom:   29    charge:    2.8596    magn:    0.0002    constr:    0.0000
     atom:   30    charge:    2.8593    magn:    0.0050    constr:    0.0000
     atom:   31    charge:    2.8596    magn:    0.0007    constr:    0.0000
     atom:   32    charge:    0.8803    magn:    0.0003    constr:    0.0000
     atom:   33    charge:   12.2608    magn:    4.0528    constr:    0.0000
     atom:   34    charge:   12.2608    magn:    4.0528    constr:    0.0000

     total cpu time spent up to now is      586.5 secs

     End of self-consistent calculation

 ------ SPIN UP ------------


          k = 0.1667 0.2887 0.0000 ( 59267 PWs)   bands (ev):

   -72.9354 -72.9118 -44.5467 -44.3584 -44.3267 -44.3067 -44.3043 -44.2836
   -21.2394 -20.6526 -20.6488 -20.1005 -20.0854 -19.5794 -19.5758 -19.0918
   -18.6895 -18.6842 -18.4532 -18.4396 -18.1866 -18.0776 -18.0706 -17.8419
   -12.4773 -12.2012 -12.1917 -11.8134 -11.8100 -11.6506 -11.1841 -11.1822
   -10.3842 -10.3607 -10.1094 -10.1079  -9.5816  -9.5805  -8.8369  -8.8162
    -8.8134  -8.7586  -8.7538  -8.5887  -8.1893  -8.0499  -8.0067  -7.8226
    -7.8181  -7.4307  -7.4295  -7.2773  -7.2521  -7.2004  -7.1988  -6.9560
    -6.9441  -6.5630  -6.5293  -6.1461  -6.1449  -5.8655  -5.4106  -5.2864
    -5.2726  -5.1924  -4.9099  -4.8910  -4.5001  -4.3490  -4.3354  -3.9734
    -3.1079  -2.2838  -2.2125  -2.0117  -1.7348  -1.6741  -1.4759  -1.4604
    -1.3627  -1.2833  -1.2340  -0.5697   0.6106   1.0086   1.0580   1.1637
     1.2851   1.4766   1.5078   1.5938   1.6141   1.7754

          k = 0.1667-0.4811 0.0000 ( 59291 PWs)   bands (ev):

   -72.9354 -72.9118 -44.5467 -44.3585 -44.3267 -44.3067 -44.3043 -44.2836
   -21.1091 -20.9044 -20.7155 -20.1534 -19.7969 -19.4588 -19.3092 -19.1675
   -19.0064 -18.7716 -18.6339 -18.5361 -18.1408 -18.0816 -17.9147 -17.7161
   -12.3416 -12.1062 -12.0365 -11.8991 -11.6722 -11.6508 -11.5453 -10.9340
   -10.8831 -10.6169 -10.5153  -9.8527  -9.6860  -9.3284  -9.1032  -8.6645
    -8.6151  -8.5458  -8.3811  -8.3611  -8.1537  -8.1171  -8.0553  -8.0422
    -7.6808  -7.6155  -7.4866  -7.4663  -7.3508  -7.1636  -7.0597  -6.8555
    -6.6142  -6.3824  -6.1728  -6.1499  -5.9670  -5.9212  -5.7759  -5.7382
    -5.4436  -5.3909  -5.2052  -5.0346  -4.4385  -4.3409  -4.0834  -3.7612
    -3.1058  -2.2838  -2.2120  -2.0083  -1.7339  -1.6744  -1.4785  -1.4611
    -1.3640  -1.2829  -1.2339  -0.5736   0.5292   1.0040   1.0798   1.1167
     1.2224   1.2542   1.3671   1.8563   1.8967   2.1455

          k = 0.1667-0.0962 0.0000 ( 59226 PWs)   bands (ev):

   -72.9354 -72.9118 -44.5467 -44.3584 -44.3267 -44.3067 -44.3043 -44.2836
   -21.3058 -20.5283 -20.3383 -20.3312 -19.9807 -19.9733 -19.7981 -18.7214
   -18.7152 -18.3694 -18.3570 -18.3496 -18.2636 -18.2506 -18.0692 -18.0640
   -12.5018 -12.4935 -12.4004 -11.5739 -11.5690 -11.4219 -11.4093 -10.9189
   -10.9159  -9.9212  -9.9195  -9.6687  -9.3704  -9.3623  -9.2225  -9.2206
    -9.0342  -9.0329  -8.9185  -8.3155  -8.3142  -7.8952  -7.8902  -7.8768
    -7.8373  -7.7624  -7.6060  -7.5735  -7.1328  -7.0827  -6.9515  -6.8801
    -6.8778  -6.8444  -6.5230  -6.5207  -6.2496  -5.3476  -5.3089  -5.1355
    -5.0574  -4.8033  -4.7885  -4.7496  -4.6132  -4.5945  -4.3486  -4.3235
    -3.1100  -2.2838  -2.2130  -2.0151  -1.7370  -1.6738  -1.4738  -1.4596
    -1.3614  -1.2836  -1.2341  -0.5655   0.6996   0.9698   1.0190   1.1856
     1.2878   1.3350   1.5882   1.5949   1.6957   1.9637

          k =-0.5000-0.8660 0.0000 ( 59292 PWs)   bands (ev):

   -72.9354 -72.9118 -44.5467 -44.3585 -44.3268 -44.3067 -44.3042 -44.2836
   -21.0422 -21.0393 -20.4624 -20.4561 -19.4190 -19.4164 -19.4066 -19.3975
   -18.9846 -18.9812 -18.3197 -18.3165 -18.3073 -18.3016 -17.7855 -17.7811
   -12.0625 -12.0620 -12.0555 -12.0506 -11.8704 -11.8658 -11.3215 -11.3206
   -10.2270 -10.2254 -10.1284 -10.1231 -10.1222 -10.1189  -8.5905  -8.5414
    -8.5379  -8.5377  -8.5346  -8.5320  -7.8576  -7.8538  -7.8530  -7.8511
    -7.8146  -7.8124  -7.7771  -7.7449  -7.4828  -7.4778  -6.6033  -6.6005
    -6.3497  -6.3295  -6.3088  -6.2808  -6.1829  -6.1791  -5.7016  -5.6947
    -5.5379  -5.5337  -4.7168  -4.7130  -4.7063  -4.6752  -3.8831  -3.8601
    -3.0988  -2.2822  -2.2121  -2.0096  -1.7345  -1.6748  -1.4777  -1.4595
    -1.3709  -1.2868  -1.2345  -0.6846   0.6810   1.0361   1.1000   1.1880
     1.5092   1.5545   1.5938   1.6200   1.6417   1.8207

          k =-0.1667 0.2887 0.0000 ( 59267 PWs)   bands (ev):

   -72.9354 -72.9118 -44.5467 -44.3584 -44.3267 -44.3067 -44.3043 -44.2836
   -21.2394 -20.6527 -20.6488 -20.1005 -20.0854 -19.5795 -19.5758 -19.0918
   -18.6896 -18.6842 -18.4533 -18.4396 -18.1866 -18.0776 -18.0705 -17.8419
   -12.4773 -12.2013 -12.1917 -11.8134 -11.8101 -11.6506 -11.1841 -11.1821
   -10.3842 -10.3607 -10.1095 -10.1079  -9.5816  -9.5805  -8.8369  -8.8161
    -8.8133  -8.7586  -8.7538  -8.5887  -8.1893  -8.0498  -8.0067  -7.8226
    -7.8181  -7.4307  -7.4295  -7.2774  -7.2521  -7.2004  -7.1987  -6.9561
    -6.9441  -6.5629  -6.5293  -6.1461  -6.1449  -5.8655  -5.4107  -5.2864
    -5.2727  -5.1923  -4.9099  -4.8909  -4.5001  -4.3490  -4.3354  -3.9734
    -3.1079  -2.2838  -2.2125  -2.0117  -1.7348  -1.6741  -1.4759  -1.4604
    -1.3627  -1.2833  -1.2340  -0.5697   0.6106   1.0086   1.0580   1.1638
     1.2851   1.4766   1.5078   1.5937   1.6140   1.7754

          k = 0.3333 0.0000 0.0000 ( 59267 PWs)   bands (ev):

   -72.9354 -72.9118 -44.5467 -44.3584 -44.3268 -44.3067 -44.3043 -44.2836
   -21.2390 -20.6786 -20.6226 -20.1028 -20.0815 -19.6060 -19.5511 -19.0939
   -18.7070 -18.6617 -18.4578 -18.4368 -18.1826 -18.1007 -18.0539 -17.8410
   -12.4756 -12.2061 -12.1878 -11.8233 -11.8030 -11.6492 -11.2015 -11.1638
   -10.3846 -10.3592 -10.1250 -10.0939  -9.5880  -9.5727  -8.8372  -8.8200
    -8.8061  -8.7803  -8.7335  -8.5892  -8.1914  -8.0983  -7.9574  -7.8214
    -7.8170  -7.4379  -7.4222  -7.2948  -7.2288  -7.2099  -7.1886  -6.9600
    -6.9421  -6.6137  -6.4856  -6.1489  -6.1413  -5.8732  -5.4110  -5.3100
    -5.2367  -5.1925  -4.9233  -4.8797  -4.4923  -4.3826  -4.3150  -3.9720
    -3.1032  -2.2826  -2.2127  -2.0127  -1.7365  -1.6743  -1.4752  -1.4592
    -1.3663  -1.2859  -1.2343  -0.6469   0.7063   1.0210   1.2237   1.2589
     1.3050   1.4725   1.5262   1.5657   1.6006   1.7666

          k =-0.1667-0.4811 0.0000 ( 59291 PWs)   bands (ev):

   -72.9354 -72.9118 -44.5467 -44.3585 -44.3267 -44.3067 -44.3043 -44.2836
   -21.1091 -20.9044 -20.7155 -20.1534 -19.7969 -19.4588 -19.3092 -19.1675
   -19.0064 -18.7716 -18.6339 -18.5361 -18.1408 -18.0816 -17.9147 -17.7161
   -12.3416 -12.1062 -12.0365 -11.8991 -11.6722 -11.6508 -11.5453 -10.9340
   -10.8832 -10.6169 -10.5153  -9.8527  -9.6860  -9.3285  -9.1032  -8.6645
    -8.6151  -8.5458  -8.3811  -8.3611  -8.1536  -8.1171  -8.0553  -8.0423
    -7.6808  -7.6156  -7.4865  -7.4663  -7.3508  -7.1636  -7.0596  -6.8554
    -6.6142  -6.3824  -6.1728  -6.1499  -5.9670  -5.9212  -5.7759  -5.7382
    -5.4437  -5.3909  -5.2052  -5.0346  -4.4385  -4.3409  -4.0834  -3.7612
    -3.1058  -2.2838  -2.2120  -2.0083  -1.7339  -1.6744  -1.4785  -1.4611
    -1.3640  -1.2829  -1.2339  -0.5736   0.5292   1.0040   1.0798   1.1167
     1.2224   1.2542   1.3671   1.8563   1.8966   2.1454

          k = 0.5000-0.0962 0.0000 ( 59291 PWs)   bands (ev):

   -72.9354 -72.9118 -44.5467 -44.3584 -44.3267 -44.3067 -44.3043 -44.2837
   -21.1062 -20.9123 -20.7104 -20.1517 -19.7968 -19.4606 -19.3156 -19.1620
   -19.0078 -18.7723 -18.6234 -18.5424 -18.1292 -18.0982 -17.9113 -17.7158
   -12.3390 -12.1072 -12.0349 -11.9036 -11.6855 -11.6363 -11.5469 -10.9354
   -10.8799 -10.6143 -10.5184  -9.8510  -9.6862  -9.3292  -9.1027  -8.6539
    -8.6154  -8.5433  -8.3958  -8.3830  -8.1519  -8.0965  -8.0680  -8.0304
    -7.6768  -7.6161  -7.4857  -7.4676  -7.3449  -7.1644  -7.0608  -6.8533
    -6.6148  -6.3915  -6.1907  -6.1495  -5.9502  -5.9211  -5.7751  -5.7425
    -5.4446  -5.3926  -5.1793  -5.0494  -4.4156  -4.3716  -4.0790  -3.7607
    -3.0987  -2.2823  -2.2121  -2.0096  -1.7351  -1.6748  -1.4778  -1.4595
    -1.3708  -1.2869  -1.2345  -0.6842   0.6667   1.0305   1.0974   1.2180
     1.2876   1.3636   1.5677   1.7909   1.8605   1.9161

          k =-0.3333-0.3849 0.0000 ( 59291 PWs)   bands (ev):

   -72.9354 -72.9118 -44.5467 -44.3584 -44.3268 -44.3067 -44.3043 -44.2837
   -21.1073 -20.9095 -20.7123 -20.1514 -19.7987 -19.4589 -19.3104 -19.1655
   -19.0108 -18.7701 -18.6248 -18.5420 -18.1314 -18.0953 -17.9114 -17.7160
   -12.3408 -12.1037 -12.0378 -11.9012 -11.6739 -11.6495 -11.5465 -10.9351
   -10.8805 -10.6139 -10.5184  -9.8508  -9.6862  -9.3296  -9.1040  -8.6569
    -8.6144  -8.5452  -8.3828  -8.3813  -8.1531  -8.1047  -8.0552  -8.0448
    -7.6772  -7.6146  -7.4920  -7.4614  -7.3430  -7.1644  -7.0614  -6.8625
    -6.6131  -6.3842  -6.1733  -6.1517  -5.9625  -5.9195  -5.7751  -5.7526
    -5.4446  -5.3855  -5.1811  -5.0505  -4.4180  -4.3682  -4.0787  -3.7609
    -3.1011  -2.2828  -2.2120  -2.0092  -1.7343  -1.6747  -1.4781  -1.4601
    -1.3688  -1.2855  -1.2344  -0.6505   0.6224   1.0208   1.1096   1.2031
     1.2398   1.3714   1.4077   1.8424   1.9138   1.9507

          k = 0.5000 0.0962 0.0000 ( 59291 PWs)   bands (ev):

   -72.9354 -72.9118 -44.5467 -44.3584 -44.3267 -44.3067 -44.3043 -44.2837
   -21.1062 -20.9123 -20.7104 -20.1517 -19.7968 -19.4606 -19.3156 -19.1620
   -19.0077 -18.7723 -18.6234 -18.5424 -18.1292 -18.0982 -17.9113 -17.7158
   -12.3390 -12.1072 -12.0349 -11.9036 -11.6855 -11.6363 -11.5469 -10.9354
   -10.8799 -10.6143 -10.5184  -9.8510  -9.6863  -9.3292  -9.1026  -8.6539
    -8.6154  -8.5433  -8.3958  -8.3830  -8.1519  -8.0965  -8.0680  -8.0303
    -7.6768  -7.6160  -7.4857  -7.4676  -7.3449  -7.1644  -7.0608  -6.8533
    -6.6147  -6.3915  -6.1907  -6.1494  -5.9502  -5.9211  -5.7752  -5.7425
    -5.4446  -5.3926  -5.1793  -5.0494  -4.4155  -4.3715  -4.0790  -3.7607
    -3.0987  -2.2823  -2.2121  -2.0096  -1.7351  -1.6748  -1.4778  -1.4595
    -1.3708  -1.2869  -1.2345  -0.6842   0.6667   1.0305   1.0974   1.2180
     1.2876   1.3636   1.5676   1.7909   1.8605   1.9160

          k =-0.3333 0.3849 0.0000 ( 59291 PWs)   bands (ev):

   -72.9354 -72.9118 -44.5467 -44.3584 -44.3268 -44.3067 -44.3043 -44.2837
   -21.1073 -20.9095 -20.7123 -20.1514 -19.7987 -19.4589 -19.3104 -19.1655
   -19.0108 -18.7702 -18.6248 -18.5420 -18.1313 -18.0953 -17.9114 -17.7160
   -12.3408 -12.1037 -12.0378 -11.9012 -11.6739 -11.6495 -11.5465 -10.9351
   -10.8805 -10.6139 -10.5184  -9.8508  -9.6862  -9.3296  -9.1040  -8.6569
    -8.6145  -8.5451  -8.3829  -8.3813  -8.1531  -8.1047  -8.0552  -8.0448
    -7.6771  -7.6146  -7.4920  -7.4613  -7.3430  -7.1644  -7.0615  -6.8625
    -6.6131  -6.3842  -6.1733  -6.1517  -5.9625  -5.9196  -5.7751  -5.7526
    -5.4445  -5.3855  -5.1811  -5.0505  -4.4181  -4.3682  -4.0787  -3.7609
    -3.1011  -2.2828  -2.2120  -2.0092  -1.7343  -1.6747  -1.4781  -1.4601
    -1.3688  -1.2855  -1.2344  -0.6505   0.6224   1.0208   1.1096   1.2031
     1.2398   1.3714   1.4077   1.8424   1.9138   1.9507

          k =-0.1667-0.0962 0.0000 ( 59226 PWs)   bands (ev):

   -72.9354 -72.9118 -44.5467 -44.3584 -44.3267 -44.3067 -44.3043 -44.2836
   -21.3058 -20.5283 -20.3383 -20.3312 -19.9807 -19.9733 -19.7980 -18.7214
   -18.7152 -18.3694 -18.3570 -18.3496 -18.2636 -18.2506 -18.0692 -18.0640
   -12.5019 -12.4935 -12.4004 -11.5738 -11.5690 -11.4220 -11.4093 -10.9189
   -10.9159  -9.9212  -9.9195  -9.6686  -9.3703  -9.3623  -9.2225  -9.2206
    -9.0342  -9.0329  -8.9185  -8.3155  -8.3142  -7.8952  -7.8902  -7.8768
    -7.8373  -7.7625  -7.6060  -7.5735  -7.1328  -7.0827  -6.9515  -6.8801
    -6.8777  -6.8444  -6.5230  -6.5207  -6.2497  -5.3476  -5.3089  -5.1354
    -5.0575  -4.8033  -4.7884  -4.7497  -4.6132  -4.5944  -4.3486  -4.3235
    -3.1100  -2.2838  -2.2130  -2.0151  -1.7370  -1.6738  -1.4738  -1.4596
    -1.3614  -1.2836  -1.2341  -0.5655   0.6996   0.9698   1.0190   1.1856
     1.2878   1.3351   1.5882   1.5949   1.6958   1.9635

          k =-0.0000-0.1925 0.0000 ( 59226 PWs)   bands (ev):

   -72.9354 -72.9118 -44.5466 -44.3584 -44.3267 -44.3067 -44.3043 -44.2836
   -21.3060 -20.5232 -20.3489 -20.3295 -19.9806 -19.9657 -19.8019 -18.7247
   -18.7079 -18.3962 -18.3535 -18.3449 -18.2473 -18.2470 -18.0767 -18.0619
   -12.5070 -12.4892 -12.3996 -11.5775 -11.5654 -11.4242 -11.4057 -10.9202
   -10.9160  -9.9244  -9.9172  -9.6683  -9.3696  -9.3605  -9.2242  -9.2206
    -9.0339  -9.0337  -8.9190  -8.3174  -8.3120  -7.8950  -7.8891  -7.8585
    -7.8357  -7.7643  -7.6256  -7.5887  -7.1044  -7.0836  -6.9501  -6.8833
    -6.8761  -6.8565  -6.5252  -6.5175  -6.2503  -5.3353  -5.3112  -5.1356
    -5.0573  -4.8494  -4.7842  -4.7445  -4.5884  -4.5822  -4.3517  -4.3301
    -3.1124  -2.2844  -2.2129  -2.0147  -1.7361  -1.6737  -1.4741  -1.4602
    -1.3598  -1.2823  -1.2339  -0.5203   0.6414   0.9209   0.9775   1.1625
     1.2235   1.4047   1.5726   1.5927   1.7145   1.9717

          k = 0.5000-0.8660 0.0000 ( 59292 PWs)   bands (ev):

   -72.9354 -72.9118 -44.5467 -44.3585 -44.3268 -44.3067 -44.3042 -44.2836
   -21.0422 -21.0392 -20.4624 -20.4561 -19.4190 -19.4164 -19.4066 -19.3975
   -18.9847 -18.9812 -18.3197 -18.3166 -18.3074 -18.3016 -17.7855 -17.7811
   -12.0625 -12.0620 -12.0556 -12.0505 -11.8703 -11.8658 -11.3216 -11.3205
   -10.2270 -10.2254 -10.1284 -10.1232 -10.1222 -10.1189  -8.5904  -8.5414
    -8.5379  -8.5376  -8.5346  -8.5319  -7.8576  -7.8539  -7.8530  -7.8511
    -7.8146  -7.8124  -7.7771  -7.7448  -7.4829  -7.4778  -6.6032  -6.6004
    -6.3497  -6.3295  -6.3088  -6.2808  -6.1829  -6.1789  -5.7016  -5.6947
    -5.5381  -5.5338  -4.7168  -4.7129  -4.7064  -4.6752  -3.8831  -3.8601
    -3.0988  -2.2822  -2.2121  -2.0096  -1.7345  -1.6748  -1.4777  -1.4595
    -1.3709  -1.2868  -1.2345  -0.6846   0.6810   1.0361   1.1000   1.1880
     1.5092   1.5545   1.5937   1.6200   1.6417   1.8191

          k =-1.0000 0.0000 0.0000 ( 59292 PWs)   bands (ev):

   -72.9354 -72.9118 -44.5467 -44.3585 -44.3268 -44.3067 -44.3043 -44.2836
   -21.0674 -21.0112 -20.4707 -20.4524 -19.4331 -19.4042 -19.3997 -19.3962
   -19.0068 -18.9614 -18.3712 -18.3068 -18.2962 -18.2710 -17.7920 -17.7767
   -12.1066 -12.0597 -12.0376 -12.0244 -11.8752 -11.8604 -11.3421 -11.3006
   -10.2429 -10.2265 -10.1246 -10.1228 -10.1177 -10.1136  -8.6291  -8.5706
    -8.5420  -8.5250  -8.5075  -8.4833  -7.8716  -7.8628  -7.8550  -7.8451
    -7.8074  -7.8050  -7.7840  -7.7547  -7.5060  -7.4571  -6.6056  -6.5946
    -6.3612  -6.3253  -6.2865  -6.2753  -6.2008  -6.1636  -5.7384  -5.6648
    -5.5586  -5.5136  -4.8095  -4.7164  -4.6570  -4.6317  -3.8833  -3.8624
    -3.1082  -2.2842  -2.2121  -2.0078  -1.7337  -1.6743  -1.4785  -1.4615
    -1.3613  -1.2816  -1.2335  -0.5294   0.4913   0.9451   1.0189   1.1073
     1.2128   1.4567   1.5807   1.6278   1.6440   1.9253

 ------ SPIN DOWN ----------


          k = 0.1667 0.2887 0.0000 ( 59267 PWs)   bands (ev):

   -68.7622 -68.7358 -40.5187 -40.3049 -40.1630 -40.1399 -40.1267 -40.1028
   -21.2350 -20.6494 -20.6435 -20.0959 -20.0813 -19.5767 -19.5701 -19.0874
   -18.6857 -18.6783 -18.4487 -18.4353 -18.1814 -18.0739 -18.0661 -17.8373
   -12.4741 -12.1980 -12.1888 -11.8109 -11.8073 -11.6481 -11.1815 -11.1784
   -10.3809 -10.3574 -10.1071 -10.1038  -9.5787  -9.5774  -8.8208  -8.8098
    -8.8061  -8.7567  -8.7503  -8.5859  -8.1867  -8.0214  -7.9972  -7.8198
    -7.8155  -7.4270  -7.4259  -7.2573  -7.2355  -7.1983  -7.1954  -6.9533
    -6.9415  -6.5379  -6.5213  -6.1432  -6.1420  -5.8477  -5.4073  -5.2647
    -5.2556  -5.1895  -4.8944  -4.8759  -4.4815  -4.3337  -4.3232  -3.9579
    -1.5044   0.4427   0.7761   0.8943   1.0058   1.0616   1.2115   1.3094
     1.3557   1.4774   1.5108   1.5788   1.6689   1.6976   1.8067   1.9673
     2.0528   2.1141   2.1615   2.2279   2.2702   2.3285

          k = 0.1667-0.4811 0.0000 ( 59291 PWs)   bands (ev):

   -68.7622 -68.7358 -40.5187 -40.3050 -40.1630 -40.1399 -40.1267 -40.1028
   -21.1043 -20.9008 -20.7110 -20.1488 -19.7926 -19.4546 -19.3050 -19.1628
   -19.0021 -18.7673 -18.6279 -18.5326 -18.1346 -18.0790 -17.9099 -17.7115
   -12.3382 -12.1030 -12.0339 -11.8963 -11.6702 -11.6476 -11.5424 -10.9310
   -10.8796 -10.6131 -10.5126  -9.8491  -9.6830  -9.3251  -9.1003  -8.6374
    -8.6123  -8.5422  -8.3786  -8.3476  -8.1509  -8.0982  -8.0528  -8.0394
    -7.6777  -7.6128  -7.4837  -7.4638  -7.3310  -7.1600  -7.0571  -6.8374
    -6.6107  -6.3655  -6.1541  -6.1471  -5.9499  -5.9178  -5.7729  -5.7217
    -5.4408  -5.3751  -5.1801  -5.0244  -4.4159  -4.3333  -4.0677  -3.7459
    -1.4962   0.4324   0.7611   0.9118   1.0095   1.0192   1.1323   1.1664
     1.2375   1.4091   1.5785   1.7075   1.7536   1.8028   1.8351   2.1052
     2.1413   2.1483   2.1819   2.2364   2.2798   2.3202

          k = 0.1667-0.0962 0.0000 ( 59226 PWs)   bands (ev):

   -68.7622 -68.7358 -40.5187 -40.3049 -40.1629 -40.1399 -40.1267 -40.1028
   -21.3015 -20.5234 -20.3341 -20.3274 -19.9754 -19.9693 -19.7943 -18.7161
   -18.7108 -18.3647 -18.3525 -18.3453 -18.2588 -18.2458 -18.0648 -18.0603
   -12.4986 -12.4906 -12.3974 -11.5707 -11.5666 -11.4189 -11.4066 -10.9155
   -10.9132  -9.9180  -9.9166  -9.6652  -9.3671  -9.3592  -9.2189  -9.2174
    -9.0314  -9.0300  -8.8975  -8.3118  -8.3108  -7.8918  -7.8875  -7.8521
    -7.8330  -7.7599  -7.5867  -7.5627  -7.1039  -7.0716  -6.9486  -6.8772
    -6.8754  -6.8329  -6.5200  -6.5182  -6.2469  -5.3208  -5.2963  -5.1324
    -5.0544  -4.7860  -4.7696  -4.7338  -4.5974  -4.5802  -4.3299  -4.3137
    -1.5125   0.4554   0.7883   0.8661   1.0005   1.0630   1.0937   1.3148
     1.3935   1.5069   1.5866   1.6766   1.7212   1.8018   1.8608   1.9166
     2.0006   2.0549   2.1412   2.1926   2.2491   2.3260

          k =-0.5000-0.8660 0.0000 ( 59292 PWs)   bands (ev):

   -68.7622 -68.7358 -40.5187 -40.3050 -40.1630 -40.1399 -40.1266 -40.1027
   -21.0393 -21.0332 -20.4581 -20.4522 -19.4142 -19.4116 -19.4015 -19.3940
   -18.9822 -18.9752 -18.3155 -18.3112 -18.3064 -18.2937 -17.7807 -17.7769
   -12.0599 -12.0583 -12.0541 -12.0463 -11.8674 -11.8637 -11.3192 -11.3166
   -10.2236 -10.2225 -10.1245 -10.1198 -10.1193 -10.1160  -8.5566  -8.5379
    -8.5358  -8.5342  -8.5281  -8.5261  -7.8543  -7.8508  -7.8502  -7.8484
    -7.8104  -7.8085  -7.7576  -7.7336  -7.4812  -7.4743  -6.5997  -6.5980
    -6.3205  -6.3035  -6.2970  -6.2709  -6.1805  -6.1750  -5.6847  -5.6811
    -5.5362  -5.5297  -4.6988  -4.6917  -4.6830  -4.6725  -3.8634  -3.8496
    -1.4774   0.2122   0.8010   0.8854   0.9924   1.0261   1.1402   1.3330
     1.4882   1.5121   1.5937   1.6733   1.7174   1.8264   1.8847   1.9335
     2.0183   2.0709   2.2202   2.2594   2.3104   2.3568

          k =-0.1667 0.2887 0.0000 ( 59267 PWs)   bands (ev):

   -68.7622 -68.7358 -40.5187 -40.3049 -40.1630 -40.1399 -40.1267 -40.1028
   -21.2350 -20.6494 -20.6434 -20.0959 -20.0813 -19.5767 -19.5700 -19.0874
   -18.6858 -18.6782 -18.4487 -18.4353 -18.1814 -18.0739 -18.0661 -17.8373
   -12.4741 -12.1980 -12.1888 -11.8109 -11.8073 -11.6482 -11.1816 -11.1784
   -10.3810 -10.3574 -10.1071 -10.1038  -9.5787  -9.5774  -8.8208  -8.8098
    -8.8061  -8.7567  -8.7503  -8.5859  -8.1867  -8.0213  -7.9972  -7.8198
    -7.8154  -7.4270  -7.4259  -7.2573  -7.2355  -7.1983  -7.1954  -6.9534
    -6.9416  -6.5379  -6.5213  -6.1432  -6.1420  -5.8476  -5.4074  -5.2647
    -5.2556  -5.1894  -4.8944  -4.8759  -4.4815  -4.3337  -4.3232  -3.9579
    -1.5044   0.4426   0.7761   0.8944   1.0058   1.0617   1.2115   1.3094
     1.3558   1.4774   1.5108   1.5787   1.6689   1.6975   1.8067   1.9673
     2.0528   2.1140   2.1615   2.2281   2.2702   2.3287

          k = 0.3333 0.0000 0.0000 ( 59267 PWs)   bands (ev):

   -68.7622 -68.7358 -40.5187 -40.3049 -40.1630 -40.1399 -40.1267 -40.1028
   -21.2346 -20.6721 -20.6206 -20.0979 -20.0780 -19.5993 -19.5490 -19.0891
   -18.7001 -18.6598 -18.4527 -18.4327 -18.1782 -18.0934 -18.0518 -17.8366
   -12.4729 -12.2016 -12.1858 -11.8196 -11.8008 -11.6468 -11.1974 -11.1620
   -10.3810 -10.3564 -10.1198 -10.0922  -9.5843  -9.5706  -8.8213  -8.8132
    -8.8000  -8.7761  -8.7322  -8.5864  -8.1884  -8.0650  -7.9532  -7.8188
    -7.8146  -7.4330  -7.4198  -7.2691  -7.2195  -7.2065  -7.1868  -6.9565
    -6.9398  -6.5833  -6.4810  -6.1457  -6.1389  -5.8528  -5.4075  -5.2847
    -5.2272  -5.1896  -4.9045  -4.8676  -4.4753  -4.3609  -4.3051  -3.9570
    -1.4923   0.2871   0.7991   0.8832   1.0155   1.0538   1.1397   1.3857
     1.4931   1.5053   1.5286   1.6099   1.7317   1.8020   1.8354   1.9643
     2.0322   2.0653   2.1556   2.2302   2.2817   2.4216

          k =-0.1667-0.4811 0.0000 ( 59291 PWs)   bands (ev):

   -68.7622 -68.7358 -40.5187 -40.3050 -40.1630 -40.1399 -40.1267 -40.1028
   -21.1043 -20.9008 -20.7110 -20.1488 -19.7926 -19.4545 -19.3050 -19.1628
   -19.0021 -18.7673 -18.6279 -18.5326 -18.1346 -18.0790 -17.9099 -17.7114
   -12.3383 -12.1030 -12.0339 -11.8963 -11.6702 -11.6476 -11.5424 -10.9310
   -10.8796 -10.6132 -10.5126  -9.8491  -9.6830  -9.3252  -9.1003  -8.6374
    -8.6122  -8.5423  -8.3785  -8.3476  -8.1509  -8.0982  -8.0528  -8.0394
    -7.6777  -7.6128  -7.4837  -7.4637  -7.3310  -7.1600  -7.0570  -6.8374
    -6.6107  -6.3655  -6.1541  -6.1472  -5.9499  -5.9177  -5.7729  -5.7217
    -5.4409  -5.3751  -5.1801  -5.0244  -4.4158  -4.3333  -4.0677  -3.7459
    -1.4962   0.4324   0.7611   0.9118   1.0094   1.0192   1.1323   1.1663
     1.2375   1.4091   1.5785   1.7075   1.7536   1.8027   1.8351   2.1051
     2.1413   2.1483   2.1819   2.2364   2.2798   2.3199

          k = 0.5000-0.0962 0.0000 ( 59291 PWs)   bands (ev):

   -68.7622 -68.7358 -40.5187 -40.3049 -40.1630 -40.1399 -40.1267 -40.1028
   -21.1019 -20.9074 -20.7067 -20.1475 -19.7925 -19.4560 -19.3103 -19.1583
   -19.0032 -18.7678 -18.6193 -18.5378 -18.1249 -18.0926 -17.9072 -17.7112
   -12.3363 -12.1038 -12.0324 -11.9002 -11.6818 -11.6347 -11.5439 -10.9320
   -10.8770 -10.6111 -10.5151  -9.8475  -9.6833  -9.3258  -9.0999  -8.6303
    -8.6123  -8.5403  -8.3834  -8.3688  -8.1492  -8.0841  -8.0642  -8.0288
    -7.6742  -7.6133  -7.4829  -7.4649  -7.3269  -7.1609  -7.0579  -6.8363
    -6.6111  -6.3711  -6.1671  -6.1468  -5.9387  -5.9175  -5.7722  -5.7241
    -5.4417  -5.3762  -5.1622  -5.0347  -4.3979  -4.3562  -4.0647  -3.7457
    -1.4774   0.2141   0.7914   0.8902   0.9909   1.0235   1.1289   1.1786
     1.3344   1.5565   1.6969   1.7299   1.7803   1.8460   1.9742   2.0003
     2.0964   2.1558   2.2269   2.2609   2.3020   2.3385

          k =-0.3333-0.3849 0.0000 ( 59291 PWs)   bands (ev):

   -68.7622 -68.7358 -40.5187 -40.3049 -40.1630 -40.1399 -40.1267 -40.1028
   -21.1028 -20.9051 -20.7083 -20.1472 -19.7942 -19.4545 -19.3060 -19.1612
   -19.0058 -18.7660 -18.6204 -18.5375 -18.1267 -18.0904 -17.9073 -17.7114
   -12.3376 -12.1010 -12.0349 -11.8983 -11.6715 -11.6463 -11.5434 -10.9317
   -10.8773 -10.6107 -10.5153  -9.8476  -9.6833  -9.3260  -9.1008  -8.6321
    -8.6116  -8.5417  -8.3799  -8.3617  -8.1504  -8.0897  -8.0528  -8.0415
    -7.6746  -7.6119  -7.4885  -7.4595  -7.3258  -7.1610  -7.0584  -6.8422
    -6.6095  -6.3663  -6.1553  -6.1482  -5.9469  -5.9164  -5.7723  -5.7314
    -5.4417  -5.3717  -5.1635  -5.0350  -4.4003  -4.3534  -4.0644  -3.7458
    -1.4838   0.2757   0.7824   0.8960   0.9841   1.0199   1.1428   1.2372
     1.2653   1.4506   1.6634   1.7452   1.8027   1.8870   1.9587   2.0498
     2.0683   2.0944   2.1776   2.2411   2.2995   2.3353

          k = 0.5000 0.0962 0.0000 ( 59291 PWs)   bands (ev):

   -68.7622 -68.7358 -40.5187 -40.3049 -40.1630 -40.1399 -40.1267 -40.1028
   -21.1019 -20.9074 -20.7067 -20.1475 -19.7925 -19.4560 -19.3104 -19.1583
   -19.0032 -18.7678 -18.6193 -18.5378 -18.1249 -18.0926 -17.9072 -17.7112
   -12.3363 -12.1038 -12.0324 -11.9002 -11.6818 -11.6347 -11.5439 -10.9320
   -10.8770 -10.6111 -10.5151  -9.8475  -9.6833  -9.3258  -9.0998  -8.6303
    -8.6123  -8.5403  -8.3833  -8.3688  -8.1493  -8.0841  -8.0642  -8.0288
    -7.6743  -7.6133  -7.4829  -7.4650  -7.3269  -7.1610  -7.0579  -6.8363
    -6.6110  -6.3711  -6.1671  -6.1467  -5.9387  -5.9175  -5.7723  -5.7241
    -5.4418  -5.3762  -5.1622  -5.0347  -4.3979  -4.3561  -4.0647  -3.7457
    -1.4774   0.2141   0.7914   0.8902   0.9909   1.0235   1.1289   1.1786
     1.3344   1.5565   1.6969   1.7299   1.7803   1.8460   1.9742   2.0003
     2.0965   2.1558   2.2269   2.2609   2.3023   2.3385

          k =-0.3333 0.3849 0.0000 ( 59291 PWs)   bands (ev):

   -68.7622 -68.7358 -40.5187 -40.3049 -40.1630 -40.1399 -40.1267 -40.1028
   -21.1028 -20.9051 -20.7083 -20.1472 -19.7942 -19.4546 -19.3060 -19.1612
   -19.0058 -18.7660 -18.6204 -18.5375 -18.1266 -18.0904 -17.9073 -17.7114
   -12.3376 -12.1010 -12.0349 -11.8983 -11.6716 -11.6463 -11.5434 -10.9317
   -10.8773 -10.6107 -10.5153  -9.8476  -9.6833  -9.3260  -9.1008  -8.6321
    -8.6117  -8.5417  -8.3799  -8.3617  -8.1505  -8.0897  -8.0528  -8.0415
    -7.6746  -7.6119  -7.4886  -7.4594  -7.3258  -7.1609  -7.0585  -6.8422
    -6.6096  -6.3663  -6.1553  -6.1482  -5.9469  -5.9165  -5.7723  -5.7314
    -5.4415  -5.3717  -5.1635  -5.0350  -4.4003  -4.3534  -4.0644  -3.7458
    -1.4838   0.2757   0.7824   0.8961   0.9841   1.0199   1.1428   1.2372
     1.2653   1.4506   1.6634   1.7451   1.8028   1.8870   1.9586   2.0498
     2.0683   2.0946   2.1775   2.2410   2.2996   2.3347

          k =-0.1667-0.0962 0.0000 ( 59226 PWs)   bands (ev):

   -68.7622 -68.7358 -40.5187 -40.3049 -40.1629 -40.1399 -40.1267 -40.1028
   -21.3015 -20.5234 -20.3341 -20.3275 -19.9754 -19.9693 -19.7943 -18.7161
   -18.7108 -18.3647 -18.3525 -18.3452 -18.2589 -18.2458 -18.0648 -18.0603
   -12.4987 -12.4906 -12.3974 -11.5707 -11.5666 -11.4189 -11.4066 -10.9155
   -10.9132  -9.9180  -9.9166  -9.6651  -9.3671  -9.3592  -9.2189  -9.2175
    -9.0313  -9.0300  -8.8975  -8.3119  -8.3108  -7.8918  -7.8874  -7.8520
    -7.8329  -7.7599  -7.5867  -7.5627  -7.1039  -7.0716  -6.9487  -6.8772
    -6.8753  -6.8329  -6.5200  -6.5181  -6.2469  -5.3208  -5.2963  -5.1323
    -5.0545  -4.7860  -4.7696  -4.7338  -4.5974  -4.5802  -4.3299  -4.3137
    -1.5125   0.4554   0.7883   0.8661   1.0005   1.0629   1.0937   1.3148
     1.3935   1.5069   1.5866   1.6765   1.7212   1.8018   1.8609   1.9167
     2.0007   2.0551   2.1409   2.1929   2.2491   2.3258

          k =-0.0000-0.1925 0.0000 ( 59226 PWs)   bands (ev):

   -68.7622 -68.7358 -40.5187 -40.3049 -40.1629 -40.1399 -40.1267 -40.1028
   -21.3016 -20.5191 -20.3439 -20.3251 -19.9765 -19.9619 -19.7975 -18.7199
   -18.7036 -18.3882 -18.3492 -18.3404 -18.2452 -18.2431 -18.0720 -18.0575
   -12.5026 -12.4872 -12.3968 -11.5746 -11.5629 -11.4202 -11.4037 -10.9171
   -10.9129  -9.9211  -9.9140  -9.6650  -9.3667  -9.3577  -9.2205  -9.2171
    -9.0309  -9.0308  -8.8978  -8.3139  -8.3084  -7.8923  -7.8866  -7.8412
    -7.8293  -7.7614  -7.6019  -7.5713  -7.0889  -7.0677  -6.9475  -6.8804
    -6.8735  -6.8415  -6.5225  -6.5149  -6.2474  -5.3169  -5.2932  -5.1325
    -5.0543  -4.8213  -4.7653  -4.7284  -4.5812  -4.5710  -4.3359  -4.3144
    -1.5183   0.5695   0.7732   0.8665   0.9955   1.0547   1.1538   1.2362
     1.3257   1.5104   1.5197   1.5798   1.7233   1.7928   1.8700   1.9312
     2.0259   2.0673   2.0796   2.2043   2.2625   2.3034

          k = 0.5000-0.8660 0.0000 ( 59292 PWs)   bands (ev):

   -68.7622 -68.7358 -40.5187 -40.3050 -40.1630 -40.1399 -40.1266 -40.1027
   -21.0393 -21.0332 -20.4581 -20.4523 -19.4142 -19.4116 -19.4015 -19.3940
   -18.9822 -18.9751 -18.3155 -18.3112 -18.3065 -18.2936 -17.7806 -17.7769
   -12.0599 -12.0583 -12.0542 -12.0462 -11.8673 -11.8636 -11.3192 -11.3165
   -10.2236 -10.2226 -10.1245 -10.1198 -10.1193 -10.1160  -8.5566  -8.5379
    -8.5358  -8.5341  -8.5279  -8.5261  -7.8542  -7.8508  -7.8502  -7.8484
    -7.8104  -7.8086  -7.7576  -7.7336  -7.4813  -7.4743  -6.5996  -6.5979
    -6.3206  -6.3035  -6.2970  -6.2709  -6.1805  -6.1749  -5.6847  -5.6811
    -5.5363  -5.5297  -4.6988  -4.6917  -4.6829  -4.6725  -3.8634  -3.8497
    -1.4774   0.2122   0.8010   0.8853   0.9924   1.0261   1.1402   1.3329
     1.4882   1.5121   1.5936   1.6733   1.7174   1.8264   1.8848   1.9334
     2.0183   2.0709   2.2202   2.2595   2.3105   2.3577

          k =-1.0000 0.0000 0.0000 ( 59292 PWs)   bands (ev):

   -68.7622 -68.7358 -40.5187 -40.3050 -40.1630 -40.1399 -40.1267 -40.1027
   -21.0609 -21.0092 -20.4659 -20.4483 -19.4278 -19.3996 -19.3960 -19.3927
   -19.0000 -18.9594 -18.3617 -18.3009 -18.2939 -18.2705 -17.7871 -17.7721
   -12.0992 -12.0573 -12.0361 -12.0236 -11.8726 -11.8582 -11.3377 -11.2989
   -10.2380 -10.2223 -10.1218 -10.1201 -10.1146 -10.1111  -8.5935  -8.5659
    -8.5389  -8.5227  -8.5068  -8.4792  -7.8673  -7.8592  -7.8514  -7.8423
    -7.8025  -7.8022  -7.7652  -7.7380  -7.5017  -7.4559  -6.6028  -6.5921
    -6.3362  -6.2996  -6.2759  -6.2662  -6.1962  -6.1615  -5.7144  -5.6557
    -5.5539  -5.5123  -4.7756  -4.6916  -4.6514  -4.6303  -3.8684  -3.8463
    -1.5022   0.5392   0.7550   0.9201   1.0216   1.0405   1.1108   1.2090
     1.2995   1.3645   1.6119   1.6413   1.6648   1.7174   1.7523   1.8386
     2.0901   2.1810   2.1945   2.2446   2.3117   2.3229

     the Fermi energy is    -1.1108 ev

!    total energy              =   -1133.81841302 Ry

     total all-electron energy =     -6753.494116 Ry
     estimated scf accuracy    <       0.00000003 Ry
     smearing contrib. (-TS)   =      -0.00000000 Ry
     internal energy E=F+TS    =   -1133.81841302 Ry

     The total energy is F=E-TS. E is the sum of the following terms:
     one-electron contribution =   -3964.33313422 Ry
     hartree contribution      =    2010.34642172 Ry
     xc contribution           =    -186.04311615 Ry
     ewald contribution        =    1365.58278725 Ry
     DFT-D3 Dispersion         =      -0.12428241 Ry
     one-center paw contrib.   =    -359.24708919 Ry

     total magnetization       =    10.00 Bohr mag/cell
     absolute magnetization    =    10.01 Bohr mag/cell

     convergence has been achieved in  14 iterations

     Writing output data file ./mytmp/Crdimer0.13-0.3.save/
 
     init_run     :     18.72s CPU     20.24s WALL (       1 calls)
     electrons    :    518.94s CPU    566.13s WALL (       1 calls)

     Called by init_run:
     wfcinit      :     13.78s CPU     14.70s WALL (       1 calls)
     potinit      :      1.45s CPU      1.57s WALL (       1 calls)
     hinit0       :      1.54s CPU      1.62s WALL (       1 calls)

     Called by electrons:
     c_bands      :    405.63s CPU    432.25s WALL (      14 calls)
     sum_band     :     80.46s CPU     92.36s WALL (      14 calls)
     v_of_rho     :      7.46s CPU      8.34s WALL (      15 calls)
     newd         :     18.12s CPU     25.33s WALL (      15 calls)
     PAW_pot      :      6.74s CPU      7.50s WALL (      15 calls)
     mix_rho      :      0.99s CPU      1.11s WALL (      14 calls)

     Called by c_bands:
     init_us_2    :      5.05s CPU      5.08s WALL (     870 calls)
     cegterg      :    393.25s CPU    419.80s WALL (     420 calls)

     Called by *egterg:
     cdiaghg      :     24.38s CPU     38.26s WALL (    2627 calls)
     h_psi        :    240.72s CPU    251.06s WALL (    2657 calls)
     s_psi        :     26.94s CPU     27.02s WALL (    2657 calls)
     g_psi        :      0.66s CPU      0.67s WALL (    2207 calls)

     Called by h_psi:
     h_psi:calbec :     28.65s CPU     29.51s WALL (    2657 calls)
     vloc_psi     :    182.64s CPU    191.93s WALL (    2657 calls)
     add_vuspsi   :     27.34s CPU     27.50s WALL (    2657 calls)

     General routines
     calbec       :     38.31s CPU     39.41s WALL (    3077 calls)
     fft          :      9.30s CPU     14.04s WALL (     369 calls)
     ffts         :      0.12s CPU      0.12s WALL (      58 calls)
     fftw         :    188.28s CPU    197.89s WALL (  248426 calls)
     interpolate  :      0.42s CPU      0.44s WALL (      30 calls)
 
     Parallel routines
     fft_scatt_xy :     30.24s CPU     31.52s WALL (  248853 calls)
     fft_scatt_yz :     79.94s CPU     89.32s WALL (  248853 calls)
 
     PWSCF        :   8m59.75s CPU   9m51.21s WALL

 
   This run was terminated on:  13:34:26  31Mar2021            

=------------------------------------------------------------------------------=
   JOB DONE.
=------------------------------------------------------------------------------=
