
     Program PWSCF v.6.7MaX starts on 31Mar2021 at 13:54:17 

     This program is part of the open-source Quantum ESPRESSO suite
     for quantum simulation of materials; please cite
         "P. Giannozzi et al., J. Phys.:Condens. Matter 21 395502 (2009);
         "P. Giannozzi et al., J. Phys.:Condens. Matter 29 465901 (2017);
          URL http://www.quantum-espresso.org", 
     in publications or presentations arising from this work. More details at
     http://www.quantum-espresso.org/quote

     Parallel version (MPI), running on    48 processors

     MPI processes distributed on     1 nodes
     R & G space division:  proc/nbgrp/npool/nimage =      48
     Reading input from Crdimer0.14-0.0.scf.in

     Current dimensions of program PWSCF are:
     Max number of different atomic species (ntypx) = 10
     Max number of k-points (npk) =  40000
     Max angular momentum in pseudopotentials (lmaxx) =  3
     file N.pbe-n-kjpaw_psl.1.0.0.UPF: wavefunction(s)  2S renormalized
     file Cr.pbe-spn-kjpaw_psl.1.0.0.UPF: wavefunction(s)  3S 3P 3D renormalized
     file Cr.pbe-spn-kjpaw_psl.1.0.0.UPF: wavefunction(s)  3S 3P 3D renormalized

     --------------------------------------------
     Parameters for DFT-D3 Dispersion Correction:
     --------------------------------------------
       Reference C6 values for interpolation: 

         atom   Coordination number   C6
         B          0.000           214.36
         B          0.971           150.74
         B          1.944           106.23
         B          2.913            62.89
         B          4.586            56.06
         N          0.000            50.54
         N          0.994            44.25
         N          2.014            39.35
         N          2.990            31.16
         Cr1        0.000          1381.48
         Cr1        1.827           571.38
         Cr1       10.619           306.69
         Cr2        0.000          1381.48
         Cr2        1.827           571.38
         Cr2       10.619           306.69

       Values used:

         atom   Coordination number  R0_AB[au]  C6      C8
         B          3.336            3.039     62.89   2505.99
         B          3.336            3.039     62.89   2505.99
         B          3.366            3.039     62.87   2505.18
         B          3.336            3.039     62.89   2505.99
         B          3.340            3.039     62.89   2505.88
         B          3.340            3.039     62.89   2505.88
         N          3.134            2.478     31.22    688.70
         N          3.134            2.478     31.22    688.70
         N          3.158            2.478     31.21    688.49
         N          3.136            2.478     31.22    688.68
         N          3.135            2.478     31.22    688.69
         N          3.134            2.478     31.22    688.69
         N          3.135            2.478     31.22    688.69
         N          3.134            2.478     31.22    688.69
         N          3.142            2.478     31.21    688.62
         B          3.335            3.039     62.89   2506.01
         B          3.336            3.039     62.89   2505.99
         B          3.340            3.039     62.89   2505.88
         B          3.340            3.039     62.89   2505.88
         B          3.336            3.039     62.89   2505.99
         B          3.335            3.039     62.89   2506.01
         N          3.135            2.478     31.22    688.69
         B          3.335            3.039     62.89   2506.01
         B          3.335            3.039     62.89   2506.01
         B          3.359            3.039     62.88   2505.39
         N          3.134            2.478     31.22    688.69
         N          3.134            2.478     31.22    688.70
         N          3.140            2.478     31.22    688.65
         N          3.140            2.478     31.22    688.65
         N          3.158            2.478     31.21    688.49
         N          3.136            2.478     31.22    688.68
         B          3.359            3.039     62.88   2505.39
         Cr1        0.771            3.252   1268.31 117050.55
         Cr2        0.771            3.252   1268.31 117050.56

         Molecular C6 ( Ry / a.u.^6 ) =     77853.39


     Subspace diagonalization in iterative solution of the eigenvalue problem:
     one sub-group per band group will be used
     scalapack distributed-memory algorithm (size of sub-group:  6*  6 procs)

 
     Parallelization info
     --------------------
     sticks:   dense  smooth     PW     G-vecs:    dense   smooth      PW
     Min         235      98     26                36277     9874    1408
     Max         236      99     27                36282     9883    1425
     Sum       11311    4741   1285              1741401   474235   68095
 


     bravais-lattice index     =            4
     lattice parameter (alat)  =      18.9275  a.u.
     unit-cell volume          =   10553.3021 (a.u.)^3
     number of atoms/cell      =           34
     number of atomic types    =            4
     number of electrons       =       156.00
     number of Kohn-Sham states=           94
     kinetic-energy cutoff     =      48.0000  Ry
     charge density cutoff     =     457.0000  Ry
     scf convergence threshold =      1.0E-07
     mixing beta               =       0.5000
     number of iterations used =            8  plain     mixing
     Exchange-correlation= SLA  PW   PBX  PBC
                           (   1   4   3   4   0   0   0)

     celldm(1)=  18.927497  celldm(2)=   0.000000  celldm(3)=   1.797125
     celldm(4)=   0.000000  celldm(5)=   0.000000  celldm(6)=   0.000000

     crystal axes: (cart. coord. in units of alat)
               a(1) = (   1.000000   0.000000   0.000000 )  
               a(2) = (  -0.500000   0.866025   0.000000 )  
               a(3) = (   0.000000   0.000000   1.797125 )  

     reciprocal axes: (cart. coord. in units 2 pi/alat)
               b(1) = (  1.000000  0.577350  0.000000 )  
               b(2) = (  0.000000  1.154701  0.000000 )  
               b(3) = (  0.000000  0.000000  0.556444 )  


     PseudoPot. # 1 for B  read from file:
     /home/sf05/q-e-qe-6.7MaX-Release/pseudo/B.pbe-n-kjpaw_psl.1.0.0.UPF
     MD5 check sum: d9c678ba5d3b2fd7b74e61139c9288d8
     Pseudo is Projector augmented-wave + core cor, Zval =  3.0
     Generated using "atomic" code by A. Dal Corso  v.5.1.2
     Shape of augmentation charge: PSQ
     Using radial grid of 1059 points,  4 beta functions with: 
                l(1) =   0
                l(2) =   0
                l(3) =   1
                l(4) =   1
     Q(r) pseudized with 0 coefficients 


     PseudoPot. # 2 for N  read from file:
     /home/sf05/q-e-qe-6.7MaX-Release/pseudo/N.pbe-n-kjpaw_psl.1.0.0.UPF
     MD5 check sum: e0e4e94a9c4025c5b51bd7d8793849bd
     Pseudo is Projector augmented-wave + core cor, Zval =  5.0
     Generated using "atomic" code by A. Dal Corso  v.5.1.2
     Shape of augmentation charge: PSQ
     Using radial grid of 1085 points,  4 beta functions with: 
                l(1) =   0
                l(2) =   0
                l(3) =   1
                l(4) =   1
     Q(r) pseudized with 0 coefficients 


     PseudoPot. # 3 for Cr read from file:
     /home/sf05/q-e-qe-6.7MaX-Release/pseudo/Cr.pbe-spn-kjpaw_psl.1.0.0.UPF
     MD5 check sum: 198f1a2427a48552563eee314eba32ba
     Pseudo is Projector augmented-wave + core cor, Zval = 14.0
     Generated using &quot;atomic&quot; code by A. Dal Corso  v.6.3
     Shape of augmentation charge: PSQ
     Using radial grid of 1183 points,  6 beta functions with: 
                l(1) =   0
                l(2) =   0
                l(3) =   1
                l(4) =   1
                l(5) =   2
                l(6) =   2
     Q(r) pseudized with 0 coefficients 


     PseudoPot. # 4 for Cr read from file:
     /home/sf05/q-e-qe-6.7MaX-Release/pseudo/Cr.pbe-spn-kjpaw_psl.1.0.0.UPF
     MD5 check sum: 198f1a2427a48552563eee314eba32ba
     Pseudo is Projector augmented-wave + core cor, Zval = 14.0
     Generated using &quot;atomic&quot; code by A. Dal Corso  v.6.3
     Shape of augmentation charge: PSQ
     Using radial grid of 1183 points,  6 beta functions with: 
                l(1) =   0
                l(2) =   0
                l(3) =   1
                l(4) =   1
                l(5) =   2
                l(6) =   2
     Q(r) pseudized with 0 coefficients 


     atomic species   valence    mass     pseudopotential
        B              3.00    10.81100     B ( 1.00)
        N              5.00    14.00674     N ( 1.00)
        Cr1           14.00    51.99610     Cr( 1.00)
        Cr2           14.00    51.99610     Cr( 1.00)

     Starting magnetic structure 
     atomic species   magnetization
        B            0.000
        N            0.000
        Cr1          1.000
        Cr2          1.000

     No symmetry found



   Cartesian axes

     site n.     atom                  positions (alat units)
         1           B   tau(   1) = (  -0.1250000   0.2165064   0.8985623  )
         2           B   tau(   2) = (   0.3750000   0.6495191   0.8985623  )
         3           B   tau(   3) = (   0.2500000   0.0000000   0.8985623  )
         4           B   tau(   4) = (   0.7500000   0.0000000   0.8985623  )
         5           B   tau(   5) = (   0.1250000   0.2165064   0.8985623  )
         6           B   tau(   6) = (  -0.3750000   0.6495191   0.8985623  )
         7           N   tau(   7) = (   0.7500005   0.2886748   0.8985623  )
         8           N   tau(   8) = (   0.3750005   0.5051812   0.8985623  )
         9           N   tau(   9) = (   0.3750005   0.0721685   0.8985623  )
        10           N   tau(  10) = (   0.6250005   0.0721685   0.8985623  )
        11           N   tau(  11) = (   0.2500005   0.2886748   0.8985623  )
        12           N   tau(  12) = (   0.6250005   0.5051812   0.8985623  )
        13           N   tau(  13) = (   0.0000005   0.2886748   0.8985623  )
        14           N   tau(  14) = (   0.2500005   0.7216875   0.8985623  )
        15           N   tau(  15) = (  -0.2499995   0.7216875   0.8985623  )
        16           B   tau(  16) = (   0.0000000   0.4330127   0.8985623  )
        17           B   tau(  17) = (   0.1250000   0.6495191   0.8985623  )
        18           B   tau(  18) = (  -0.1250000   0.6495191   0.8985623  )
        19           B   tau(  19) = (   0.3750000   0.2165064   0.8985623  )
        20           B   tau(  20) = (   0.6250000   0.2165064   0.8985623  )
        21           B   tau(  21) = (   0.5000000   0.4330127   0.8985623  )
        22           N   tau(  22) = (   0.5000005   0.2886748   0.8985623  )
        23           B   tau(  23) = (  -0.2500000   0.4330127   0.8985623  )
        24           B   tau(  24) = (   0.2500000   0.4330127   0.8985623  )
        25           B   tau(  25) = (   0.5000000   0.0000000   0.8985623  )
        26           N   tau(  26) = (  -0.1249995   0.5051812   0.8985623  )
        27           N   tau(  27) = (   0.1250005   0.5051812   0.8985623  )
        28           N   tau(  28) = (   0.0000005   0.7216875   0.8985623  )
        29           N   tau(  29) = (   0.5000005   0.7216875   0.8985623  )
        30           N   tau(  30) = (   0.1250005   0.0721685   0.8985623  )
        31           N   tau(  31) = (   0.8750005   0.0721685   0.8985623  )
        32           B   tau(  32) = (   0.0000000   0.0000000   0.8985623  )
        33           Cr1 tau(  33) = (   0.3900000   0.0000000   1.2040735  )
        34           Cr2 tau(  34) = (   0.1100000   0.0000000   1.2040735  )

     number of k points=    15  Gaussian smearing, width (Ry)=  0.0000
                       cart. coord. in units 2pi/alat
        k(    1) = (   0.1666667   0.2886751   0.0000000), wk =   0.0740741
        k(    2) = (   0.1666667  -0.4811252   0.0000000), wk =   0.0740741
        k(    3) = (   0.1666667  -0.0962250   0.0000000), wk =   0.0740741
        k(    4) = (  -0.5000000  -0.8660254   0.0000000), wk =   0.0370370
        k(    5) = (  -0.1666667   0.2886751   0.0000000), wk =   0.0740741
        k(    6) = (   0.3333333   0.0000000   0.0000000), wk =   0.0740741
        k(    7) = (  -0.1666667  -0.4811252   0.0000000), wk =   0.0740741
        k(    8) = (   0.5000000  -0.0962250   0.0000000), wk =   0.0740741
        k(    9) = (  -0.3333333  -0.3849002   0.0000000), wk =   0.0740741
        k(   10) = (   0.5000000   0.0962250   0.0000000), wk =   0.0740741
        k(   11) = (  -0.3333333   0.3849002   0.0000000), wk =   0.0740741
        k(   12) = (  -0.1666667  -0.0962250   0.0000000), wk =   0.0740741
        k(   13) = (  -0.0000000  -0.1924501   0.0000000), wk =   0.0740741
        k(   14) = (   0.5000000  -0.8660254   0.0000000), wk =   0.0370370
        k(   15) = (  -1.0000000   0.0000000   0.0000000), wk =   0.0370370

     Dense  grid:  1741401 G-vectors     FFT dimensions: ( 135, 135, 240)

     Smooth grid:   474235 G-vectors     FFT dimensions: (  90,  90, 160)

     Estimated max dynamical RAM per process >     218.62 MB

     Estimated total dynamical RAM >      10.25 GB
     Generating pointlists ...
     new r_m :   0.0595 (alat units)  1.1269 (a.u.) for type    1
     new r_m :   0.0595 (alat units)  1.1269 (a.u.) for type    2
     new r_m :   0.1155 (alat units)  2.1861 (a.u.) for type    3
     new r_m :   0.1155 (alat units)  2.1861 (a.u.) for type    4

     Initial potential from superposition of free atoms

     starting charge  155.99382, renormalised to  156.00000

     negative rho (up, down):  6.709E-03 4.655E-04
     Starting wfcs are  148 randomized atomic wfcs
     Checking if some PAW data can be deallocated... 

     total cpu time spent up to now is       20.5 secs

     Self-consistent Calculation

     iteration #  1     ecut=    48.00 Ry     beta= 0.50
     Davidson diagonalization with overlap
     ethr =  1.00E-02,  avg # of iterations =  2.8

     negative rho (up, down):  4.898E-03 2.909E-03

     total cpu time spent up to now is       63.8 secs

     total energy              =   -1130.73499916 Ry
     estimated scf accuracy    <      11.36437591 Ry

     total magnetization       =    12.00 Bohr mag/cell
     absolute magnetization    =    12.12 Bohr mag/cell

     iteration #  2     ecut=    48.00 Ry     beta= 0.50
     Davidson diagonalization with overlap
     ethr =  7.28E-03,  avg # of iterations =  2.8

     negative rho (up, down):  8.683E-03 7.859E-03

     total cpu time spent up to now is      104.6 secs

     total energy              =   -1132.94575850 Ry
     estimated scf accuracy    <       3.69965092 Ry

     total magnetization       =    10.00 Bohr mag/cell
     absolute magnetization    =    10.07 Bohr mag/cell

     iteration #  3     ecut=    48.00 Ry     beta= 0.50
     Davidson diagonalization with overlap
     ethr =  2.37E-03,  avg # of iterations =  7.1

     negative rho (up, down):  4.047E-03 3.832E-03

     total cpu time spent up to now is      146.3 secs

     total energy              =   -1133.57171190 Ry
     estimated scf accuracy    <       0.84360886 Ry

     total magnetization       =    10.89 Bohr mag/cell
     absolute magnetization    =    10.95 Bohr mag/cell

     iteration #  4     ecut=    48.00 Ry     beta= 0.50
     Davidson diagonalization with overlap
     ethr =  5.41E-04,  avg # of iterations =  6.5

     negative rho (up, down):  7.204E-03 7.522E-03

     total cpu time spent up to now is      185.9 secs

     total energy              =   -1133.76562330 Ry
     estimated scf accuracy    <       0.51425869 Ry

     total magnetization       =    10.00 Bohr mag/cell
     absolute magnetization    =    10.01 Bohr mag/cell

     iteration #  5     ecut=    48.00 Ry     beta= 0.50
     Davidson diagonalization with overlap
     ethr =  3.30E-04,  avg # of iterations =  6.1

     negative rho (up, down):  4.709E-03 4.342E-03

     total cpu time spent up to now is      227.5 secs

     total energy              =   -1133.80759397 Ry
     estimated scf accuracy    <       0.13855699 Ry

     total magnetization       =    10.00 Bohr mag/cell
     absolute magnetization    =    10.01 Bohr mag/cell

     iteration #  6     ecut=    48.00 Ry     beta= 0.50
     Davidson diagonalization with overlap
     ethr =  8.88E-05,  avg # of iterations =  5.8

     negative rho (up, down):  3.752E-03 3.930E-03

     total cpu time spent up to now is      267.9 secs

     total energy              =   -1133.82237933 Ry
     estimated scf accuracy    <       0.02320106 Ry

     total magnetization       =    10.00 Bohr mag/cell
     absolute magnetization    =    10.02 Bohr mag/cell

     iteration #  7     ecut=    48.00 Ry     beta= 0.50
     Davidson diagonalization with overlap
     ethr =  1.49E-05,  avg # of iterations = 11.0

     negative rho (up, down):  3.301E-03 3.806E-03

     total cpu time spent up to now is      314.6 secs

     total energy              =   -1133.82710310 Ry
     estimated scf accuracy    <       0.00625921 Ry

     total magnetization       =    10.00 Bohr mag/cell
     absolute magnetization    =    10.01 Bohr mag/cell

     iteration #  8     ecut=    48.00 Ry     beta= 0.50
     Davidson diagonalization with overlap
     ethr =  4.01E-06,  avg # of iterations =  4.7

     negative rho (up, down):  3.202E-03 3.795E-03

     total cpu time spent up to now is      351.5 secs

     total energy              =   -1133.82796880 Ry
     estimated scf accuracy    <       0.00078274 Ry

     total magnetization       =    10.00 Bohr mag/cell
     absolute magnetization    =    10.01 Bohr mag/cell

     iteration #  9     ecut=    48.00 Ry     beta= 0.50
     Davidson diagonalization with overlap
     ethr =  5.02E-07,  avg # of iterations =  6.9

     negative rho (up, down):  3.145E-03 3.782E-03

     total cpu time spent up to now is      393.1 secs

     total energy              =   -1133.82816095 Ry
     estimated scf accuracy    <       0.00012739 Ry

     total magnetization       =    10.00 Bohr mag/cell
     absolute magnetization    =    10.01 Bohr mag/cell

     iteration # 10     ecut=    48.00 Ry     beta= 0.50
     Davidson diagonalization with overlap
     ethr =  8.17E-08,  avg # of iterations =  3.0

     negative rho (up, down):  3.129E-03 3.792E-03

     total cpu time spent up to now is      432.7 secs

     total energy              =   -1133.82821997 Ry
     estimated scf accuracy    <       0.00001690 Ry

     total magnetization       =    10.00 Bohr mag/cell
     absolute magnetization    =    10.01 Bohr mag/cell

     iteration # 11     ecut=    48.00 Ry     beta= 0.50
     Davidson diagonalization with overlap
     ethr =  1.08E-08,  avg # of iterations =  4.7

     negative rho (up, down):  3.123E-03 3.800E-03

     total cpu time spent up to now is      471.5 secs

     total energy              =   -1133.82823550 Ry
     estimated scf accuracy    <       0.00000324 Ry

     total magnetization       =    10.00 Bohr mag/cell
     absolute magnetization    =    10.01 Bohr mag/cell

     iteration # 12     ecut=    48.00 Ry     beta= 0.50
     Davidson diagonalization with overlap
     ethr =  2.08E-09,  avg # of iterations =  4.1

     negative rho (up, down):  3.119E-03 3.808E-03

     total cpu time spent up to now is      508.2 secs

     total energy              =   -1133.82824007 Ry
     estimated scf accuracy    <       0.00000170 Ry

     total magnetization       =    10.00 Bohr mag/cell
     absolute magnetization    =    10.01 Bohr mag/cell

     iteration # 13     ecut=    48.00 Ry     beta= 0.50
     Davidson diagonalization with overlap
     ethr =  1.09E-09,  avg # of iterations =  4.6

     negative rho (up, down):  3.117E-03 3.811E-03

     total cpu time spent up to now is      544.6 secs

     total energy              =   -1133.82824195 Ry
     estimated scf accuracy    <       0.00000025 Ry

     total magnetization       =    10.00 Bohr mag/cell
     absolute magnetization    =    10.01 Bohr mag/cell

     iteration # 14     ecut=    48.00 Ry     beta= 0.50
     Davidson diagonalization with overlap
     ethr =  1.63E-10,  avg # of iterations =  4.5

     negative rho (up, down):  3.115E-03 3.812E-03
 
     Magnetic moment per site:
     atom:    1    charge:    0.8805    magn:    0.0001    constr:    0.0000
     atom:    2    charge:    0.8806    magn:    0.0004    constr:    0.0000
     atom:    3    charge:    0.8792    magn:    0.0001    constr:    0.0000
     atom:    4    charge:    0.8808    magn:    0.0001    constr:    0.0000
     atom:    5    charge:    0.8801    magn:    0.0008    constr:    0.0000
     atom:    6    charge:    0.8800    magn:    0.0001    constr:    0.0000
     atom:    7    charge:    2.8610    magn:    0.0000    constr:    0.0000
     atom:    8    charge:    2.8609    magn:    0.0002    constr:    0.0000
     atom:    9    charge:    2.8610    magn:    0.0065    constr:    0.0000
     atom:   10    charge:    2.8609    magn:    0.0013    constr:    0.0000
     atom:   11    charge:    2.8607    magn:    0.0009    constr:    0.0000
     atom:   12    charge:    2.8609    magn:    0.0003    constr:    0.0000
     atom:   13    charge:    2.8599    magn:    0.0007    constr:    0.0000
     atom:   14    charge:    2.8599    magn:    0.0004    constr:    0.0000
     atom:   15    charge:    2.8594    magn:    0.0048    constr:    0.0000
     atom:   16    charge:    0.8800    magn:    0.0001    constr:    0.0000
     atom:   17    charge:    0.8803    magn:    0.0004    constr:    0.0000
     atom:   18    charge:    0.8797    magn:    0.0001    constr:    0.0000
     atom:   19    charge:    0.8796    magn:    0.0008    constr:    0.0000
     atom:   20    charge:    0.8799    magn:    0.0001    constr:    0.0000
     atom:   21    charge:    0.8797    magn:    0.0001    constr:    0.0000
     atom:   22    charge:    2.8612    magn:    0.0006    constr:    0.0000
     atom:   23    charge:    0.8798    magn:    0.0001    constr:    0.0000
     atom:   24    charge:    0.8799    magn:    0.0001    constr:    0.0000
     atom:   25    charge:    0.8806    magn:   -0.0000    constr:    0.0000
     atom:   26    charge:    2.8597    magn:    0.0003    constr:    0.0000
     atom:   27    charge:    2.8598    magn:    0.0002    constr:    0.0000
     atom:   28    charge:    2.8595    magn:    0.0040    constr:    0.0000
     atom:   29    charge:    2.8593    magn:    0.0040    constr:    0.0000
     atom:   30    charge:    2.8597    magn:    0.0065    constr:    0.0000
     atom:   31    charge:    2.8596    magn:    0.0013    constr:    0.0000
     atom:   32    charge:    0.8809    magn:   -0.0000    constr:    0.0000
     atom:   33    charge:   12.4869    magn:    4.2134    constr:    0.0000
     atom:   34    charge:   12.4869    magn:    4.2135    constr:    0.0000

     total cpu time spent up to now is      582.7 secs

     End of self-consistent calculation

 ------ SPIN UP ------------


          k = 0.1667 0.2887 0.0000 ( 59267 PWs)   bands (ev):

   -72.8826 -72.8733 -44.4419 -44.3518 -44.2810 -44.2720 -44.2548 -44.2459
   -21.2473 -20.6607 -20.6566 -20.1049 -20.0969 -19.5869 -19.5843 -19.1000
   -18.6980 -18.6920 -18.4582 -18.4509 -18.1955 -18.0858 -18.0787 -17.8502
   -12.4844 -12.2075 -12.2015 -11.8214 -11.8183 -11.6591 -11.1919 -11.1898
   -10.3924 -10.3682 -10.1184 -10.1153  -9.5896  -9.5885  -8.8374  -8.8264
    -8.8230  -8.7662  -8.7629  -8.5971  -8.1976  -8.0543  -8.0137  -7.8300
    -7.8275  -7.4395  -7.4371  -7.2827  -7.2588  -7.2083  -7.2074  -6.9619
    -6.9551  -6.5688  -6.5359  -6.1543  -6.1535  -5.8722  -5.4191  -5.2974
    -5.2737  -5.2008  -4.9125  -4.9011  -4.5083  -4.3578  -4.3396  -3.9801
    -2.9088  -2.0634  -2.0417  -1.8491  -1.6406  -1.5847  -1.4743  -1.4612
    -1.3625  -1.3529  -1.3045  -0.7175   0.6733   0.8571   1.0500   1.2028
     1.2995   1.4833   1.5206   1.5748   1.6099   1.7976

          k = 0.1667-0.4811 0.0000 ( 59291 PWs)   bands (ev):

   -72.8826 -72.8733 -44.4419 -44.3518 -44.2809 -44.2720 -44.2548 -44.2459
   -21.1169 -20.9125 -20.7233 -20.1613 -19.8047 -19.4670 -19.3174 -19.1752
   -19.0148 -18.7791 -18.6421 -18.5447 -18.1497 -18.0897 -17.9226 -17.7245
   -12.3485 -12.1137 -12.0452 -11.9068 -11.6809 -11.6595 -11.5531 -10.9426
   -10.8906 -10.6239 -10.5236  -9.8608  -9.6937  -9.3366  -9.1114  -8.6685
    -8.6233  -8.5537  -8.3895  -8.3677  -8.1621  -8.1229  -8.0632  -8.0507
    -7.6892  -7.6239  -7.4947  -7.4748  -7.3565  -7.1714  -7.0683  -6.8610
    -6.6226  -6.3895  -6.1786  -6.1584  -5.9724  -5.9298  -5.7843  -5.7457
    -5.4520  -5.3974  -5.2099  -5.0423  -4.4456  -4.3483  -4.0895  -3.7678
    -2.9061  -2.0631  -2.0423  -1.8456  -1.6389  -1.5846  -1.4768  -1.4617
    -1.3625  -1.3526  -1.3064  -0.7219   0.5867   0.8476   1.0700   1.1158
     1.2451   1.2740   1.3985   1.8417   1.9282   2.1123

          k = 0.1667-0.0962 0.0000 ( 59226 PWs)   bands (ev):

   -72.8826 -72.8733 -44.4419 -44.3518 -44.2810 -44.2720 -44.2548 -44.2458
   -21.3137 -20.5361 -20.3475 -20.3377 -19.9906 -19.9795 -19.8063 -18.7317
   -18.7209 -18.3764 -18.3682 -18.3551 -18.2702 -18.2619 -18.0793 -18.0706
   -12.5084 -12.5021 -12.4086 -11.5827 -11.5758 -11.4276 -11.4204 -10.9271
   -10.9238  -9.9304  -9.9261  -9.6762  -9.3754  -9.3728  -9.2310  -9.2283
    -9.0428  -9.0407  -8.9240  -8.3248  -8.3214  -7.9022  -7.8999  -7.8813
    -7.8456  -7.7709  -7.6115  -7.5804  -7.1382  -7.0894  -6.9598  -6.8891
    -6.8854  -6.8513  -6.5327  -6.5280  -6.2580  -5.3543  -5.3141  -5.1439
    -5.0658  -4.8099  -4.8007  -4.7488  -4.6157  -4.6076  -4.3561  -4.3295
    -2.9118  -2.0637  -2.0411  -1.8526  -1.6431  -1.5848  -1.4721  -1.4607
    -1.3624  -1.3533  -1.3028  -0.7128   0.7813   0.8440   1.0019   1.2118
     1.2597   1.3496   1.5838   1.6031   1.7317   1.9526

          k =-0.5000-0.8660 0.0000 ( 59292 PWs)   bands (ev):

   -72.8826 -72.8733 -44.4419 -44.3518 -44.2810 -44.2721 -44.2548 -44.2459
   -21.0499 -21.0473 -20.4719 -20.4624 -19.4298 -19.4195 -19.4141 -19.4085
   -18.9925 -18.9898 -18.3259 -18.3204 -18.3164 -18.3153 -17.7961 -17.7872
   -12.0714 -12.0656 -12.0631 -12.0622 -11.8803 -11.8718 -11.3295 -11.3279
   -10.2366 -10.2307 -10.1367 -10.1334 -10.1299 -10.1257  -8.5915  -8.5501
    -8.5475  -8.5450  -8.5444  -8.5383  -7.8657  -7.8639  -7.8590  -7.8572
    -7.8257  -7.8197  -7.7839  -7.7513  -7.4900  -7.4874  -6.6136  -6.6066
    -6.3623  -6.3324  -6.3055  -6.2929  -6.1900  -6.1886  -5.7122  -5.6967
    -5.5459  -5.5426  -4.7301  -4.7214  -4.6956  -4.6909  -3.8915  -3.8651
    -2.8946  -2.0612  -2.0418  -1.8471  -1.6412  -1.5841  -1.4767  -1.4619
    -1.3679  -1.3565  -1.3094  -0.8392   0.7676   0.9998   1.1196   1.1547
     1.3705   1.5716   1.5872   1.6070   1.7380   1.7603

          k =-0.1667 0.2887 0.0000 ( 59267 PWs)   bands (ev):

   -72.8826 -72.8733 -44.4419 -44.3518 -44.2810 -44.2720 -44.2548 -44.2459
   -21.2473 -20.6606 -20.6566 -20.1049 -20.0969 -19.5869 -19.5844 -19.1000
   -18.6979 -18.6920 -18.4582 -18.4509 -18.1955 -18.0858 -18.0787 -17.8502
   -12.4844 -12.2075 -12.2015 -11.8214 -11.8183 -11.6591 -11.1919 -11.1898
   -10.3924 -10.3681 -10.1183 -10.1153  -9.5896  -9.5885  -8.8374  -8.8264
    -8.8229  -8.7662  -8.7630  -8.5970  -8.1977  -8.0543  -8.0137  -7.8300
    -7.8274  -7.4395  -7.4371  -7.2827  -7.2588  -7.2082  -7.2074  -6.9619
    -6.9552  -6.5688  -6.5359  -6.1543  -6.1534  -5.8722  -5.4192  -5.2974
    -5.2737  -5.2007  -4.9125  -4.9011  -4.5083  -4.3578  -4.3396  -3.9801
    -2.9088  -2.0634  -2.0417  -1.8491  -1.6406  -1.5847  -1.4743  -1.4612
    -1.3625  -1.3529  -1.3045  -0.7175   0.6733   0.8571   1.0500   1.2028
     1.2995   1.4833   1.5206   1.5747   1.6099   1.7976

          k = 0.3333 0.0000 0.0000 ( 59267 PWs)   bands (ev):

   -72.8826 -72.8733 -44.4419 -44.3518 -44.2810 -44.2720 -44.2548 -44.2459
   -21.2469 -20.6859 -20.6312 -20.1058 -20.0944 -19.6137 -19.5597 -19.1021
   -18.7141 -18.6707 -18.4617 -18.4493 -18.1907 -18.1089 -18.0626 -17.8493
   -12.4842 -12.2088 -12.2000 -11.8299 -11.8121 -11.6569 -11.2105 -11.1721
   -10.3915 -10.3679 -10.1309 -10.1030  -9.5959  -9.5810  -8.8453  -8.8236
    -8.8152  -8.7886  -8.7420  -8.5979  -8.1995  -8.1021  -7.9654  -7.8289
    -7.8263  -7.4451  -7.4308  -7.2939  -7.2422  -7.2184  -7.1971  -6.9645
    -6.9541  -6.6184  -6.4936  -6.1572  -6.1498  -5.8787  -5.4190  -5.3114
    -5.2490  -5.2010  -4.9212  -4.8949  -4.4996  -4.3844  -4.3257  -3.9784
    -2.9015  -2.0618  -2.0411  -1.8502  -1.6430  -1.5844  -1.4739  -1.4613
    -1.3660  -1.3556  -1.3063  -0.7992   0.8128   0.9928   1.0770   1.2459
     1.3230   1.4999   1.5180   1.5570   1.5892   1.8339

          k =-0.1667-0.4811 0.0000 ( 59291 PWs)   bands (ev):

   -72.8826 -72.8733 -44.4419 -44.3518 -44.2809 -44.2720 -44.2548 -44.2459
   -21.1169 -20.9125 -20.7233 -20.1613 -19.8047 -19.4670 -19.3174 -19.1752
   -19.0149 -18.7791 -18.6421 -18.5447 -18.1497 -18.0897 -17.9226 -17.7245
   -12.3486 -12.1136 -12.0452 -11.9068 -11.6809 -11.6595 -11.5531 -10.9426
   -10.8906 -10.6239 -10.5236  -9.8608  -9.6937  -9.3367  -9.1115  -8.6685
    -8.6233  -8.5537  -8.3895  -8.3677  -8.1620  -8.1229  -8.0633  -8.0507
    -7.6892  -7.6240  -7.4946  -7.4748  -7.3565  -7.1714  -7.0682  -6.8610
    -6.6227  -6.3895  -6.1786  -6.1584  -5.9724  -5.9297  -5.7842  -5.7457
    -5.4521  -5.3974  -5.2099  -5.0423  -4.4456  -4.3483  -4.0895  -3.7678
    -2.9061  -2.0631  -2.0423  -1.8456  -1.6389  -1.5846  -1.4768  -1.4617
    -1.3625  -1.3526  -1.3064  -0.7219   0.5867   0.8476   1.0700   1.1158
     1.2451   1.2740   1.3985   1.8417   1.9282   2.1122

          k = 0.5000-0.0962 0.0000 ( 59291 PWs)   bands (ev):

   -72.8826 -72.8733 -44.4419 -44.3518 -44.2810 -44.2720 -44.2548 -44.2459
   -21.1141 -20.9201 -20.7185 -20.1594 -19.8049 -19.4692 -19.3232 -19.1702
   -19.0159 -18.7803 -18.6314 -18.5510 -18.1372 -18.1067 -17.9198 -17.7241
   -12.3475 -12.1142 -12.0431 -11.9108 -11.6930 -11.6447 -11.5555 -10.9429
   -10.8885 -10.6222 -10.5260  -9.8584  -9.6944  -9.3377  -9.1109  -8.6582
    -8.6239  -8.5515  -8.4002  -8.3918  -8.1600  -8.1033  -8.0765  -8.0389
    -7.6852  -7.6244  -7.4937  -7.4760  -7.3502  -7.1728  -7.0691  -6.8602
    -6.6231  -6.3989  -6.1947  -6.1578  -5.9571  -5.9290  -5.7835  -5.7486
    -5.4531  -5.3982  -5.1865  -5.0565  -4.4237  -4.3763  -4.0863  -3.7671
    -2.8947  -2.0612  -2.0419  -1.8471  -1.6417  -1.5841  -1.4767  -1.4619
    -1.3678  -1.3566  -1.3095  -0.8390   0.7550   0.9954   1.1027   1.1588
     1.3005   1.3173   1.5596   1.7558   1.8464   1.9236

          k =-0.3333-0.3849 0.0000 ( 59291 PWs)   bands (ev):

   -72.8826 -72.8733 -44.4419 -44.3518 -44.2809 -44.2720 -44.2548 -44.2459
   -21.1151 -20.9174 -20.7203 -20.1592 -19.8069 -19.4671 -19.3181 -19.1738
   -19.0188 -18.7785 -18.6330 -18.5501 -18.1399 -18.1034 -17.9199 -17.7243
   -12.3480 -12.1123 -12.0454 -11.9099 -11.6819 -11.6572 -11.5544 -10.9427
   -10.8881 -10.6216 -10.5270  -9.8592  -9.6945  -9.3370  -9.1118  -8.6615
    -8.6226  -8.5537  -8.3915  -8.3864  -8.1615  -8.1108  -8.0633  -8.0533
    -7.6854  -7.6229  -7.5005  -7.4697  -7.3488  -7.1729  -7.0697  -6.8685
    -6.6210  -6.3907  -6.1790  -6.1601  -5.9697  -5.9279  -5.7836  -5.7573
    -5.4530  -5.3927  -5.1873  -5.0571  -4.4263  -4.3736  -4.0856  -3.7674
    -2.8984  -2.0620  -2.0421  -1.8466  -1.6405  -1.5843  -1.4766  -1.4620
    -1.3660  -1.3552  -1.3084  -0.8033   0.6956   0.9601   1.1005   1.1445
     1.2329   1.3814   1.4378   1.8081   1.9056   1.9207

          k = 0.5000 0.0962 0.0000 ( 59291 PWs)   bands (ev):

   -72.8826 -72.8733 -44.4419 -44.3518 -44.2810 -44.2720 -44.2548 -44.2459
   -21.1141 -20.9201 -20.7185 -20.1594 -19.8048 -19.4692 -19.3232 -19.1702
   -19.0159 -18.7803 -18.6314 -18.5510 -18.1372 -18.1067 -17.9198 -17.7241
   -12.3475 -12.1142 -12.0431 -11.9109 -11.6930 -11.6447 -11.5555 -10.9428
   -10.8885 -10.6223 -10.5261  -9.8585  -9.6944  -9.3377  -9.1108  -8.6582
    -8.6239  -8.5516  -8.4002  -8.3918  -8.1600  -8.1033  -8.0765  -8.0388
    -7.6852  -7.6244  -7.4938  -7.4760  -7.3502  -7.1729  -7.0691  -6.8602
    -6.6230  -6.3989  -6.1947  -6.1577  -5.9571  -5.9290  -5.7836  -5.7486
    -5.4531  -5.3982  -5.1865  -5.0565  -4.4237  -4.3763  -4.0863  -3.7671
    -2.8947  -2.0612  -2.0419  -1.8471  -1.6417  -1.5841  -1.4767  -1.4619
    -1.3678  -1.3566  -1.3095  -0.8390   0.7550   0.9954   1.1027   1.1589
     1.3005   1.3172   1.5596   1.7558   1.8464   1.9236

          k =-0.3333 0.3849 0.0000 ( 59291 PWs)   bands (ev):

   -72.8826 -72.8733 -44.4419 -44.3518 -44.2809 -44.2720 -44.2548 -44.2459
   -21.1151 -20.9174 -20.7203 -20.1592 -19.8069 -19.4671 -19.3181 -19.1738
   -19.0188 -18.7785 -18.6330 -18.5501 -18.1399 -18.1034 -17.9199 -17.7243
   -12.3480 -12.1123 -12.0454 -11.9099 -11.6819 -11.6572 -11.5543 -10.9428
   -10.8881 -10.6216 -10.5270  -9.8593  -9.6944  -9.3370  -9.1118  -8.6615
    -8.6226  -8.5536  -8.3916  -8.3864  -8.1616  -8.1108  -8.0632  -8.0533
    -7.6854  -7.6229  -7.5005  -7.4697  -7.3488  -7.1729  -7.0697  -6.8685
    -6.6211  -6.3907  -6.1790  -6.1601  -5.9697  -5.9280  -5.7835  -5.7573
    -5.4529  -5.3927  -5.1873  -5.0571  -4.4263  -4.3736  -4.0856  -3.7674
    -2.8984  -2.0620  -2.0421  -1.8466  -1.6405  -1.5843  -1.4766  -1.4620
    -1.3660  -1.3552  -1.3084  -0.8033   0.6956   0.9601   1.1005   1.1445
     1.2329   1.3815   1.4378   1.8080   1.9056   1.9206

          k =-0.1667-0.0962 0.0000 ( 59226 PWs)   bands (ev):

   -72.8826 -72.8733 -44.4419 -44.3518 -44.2810 -44.2720 -44.2548 -44.2458
   -21.3137 -20.5361 -20.3475 -20.3377 -19.9907 -19.9795 -19.8063 -18.7317
   -18.7209 -18.3764 -18.3682 -18.3551 -18.2702 -18.2619 -18.0792 -18.0706
   -12.5084 -12.5021 -12.4085 -11.5826 -11.5757 -11.4276 -11.4205 -10.9271
   -10.9238  -9.9304  -9.9261  -9.6762  -9.3754  -9.3728  -9.2310  -9.2283
    -9.0428  -9.0407  -8.9240  -8.3248  -8.3215  -7.9022  -7.8998  -7.8813
    -7.8455  -7.7709  -7.6115  -7.5803  -7.1382  -7.0894  -6.9599  -6.8891
    -6.8854  -6.8513  -6.5326  -6.5280  -6.2581  -5.3543  -5.3141  -5.1438
    -5.0659  -4.8098  -4.8007  -4.7488  -4.6157  -4.6076  -4.3561  -4.3295
    -2.9118  -2.0637  -2.0411  -1.8526  -1.6431  -1.5848  -1.4721  -1.4607
    -1.3624  -1.3533  -1.3028  -0.7128   0.7813   0.8440   1.0019   1.2117
     1.2597   1.3497   1.5838   1.6032   1.7317   1.9522

          k =-0.0000-0.1925 0.0000 ( 59226 PWs)   bands (ev):

   -72.8826 -72.8733 -44.4419 -44.3518 -44.2810 -44.2720 -44.2548 -44.2459
   -21.3138 -20.5311 -20.3539 -20.3402 -19.9874 -19.9752 -19.8099 -18.7308
   -18.7182 -18.3940 -18.3731 -18.3527 -18.2553 -18.2552 -18.0832 -18.0718
   -12.5098 -12.5009 -12.4084 -11.5845 -11.5756 -11.4268 -11.4180 -10.9285
   -10.9242  -9.9294  -9.9270  -9.6766  -9.3759  -9.3711  -9.2305  -9.2293
    -9.0427  -9.0411  -8.9247  -8.3242  -8.3211  -7.9011  -7.8991  -7.8645
    -7.8440  -7.7727  -7.6326  -7.5929  -7.1128  -7.0880  -6.9585  -6.8907
    -6.8854  -6.8629  -6.5329  -6.5269  -6.2588  -5.3438  -5.3164  -5.1440
    -5.0657  -4.8367  -4.8077  -4.7522  -4.5957  -4.5893  -4.3572  -4.3374
    -2.9153  -2.0646  -2.0414  -1.8520  -1.6419  -1.5850  -1.4726  -1.4605
    -1.3608  -1.3519  -1.3020  -0.6651   0.6698   0.8037   0.9922   1.1833
     1.2487   1.3797   1.5806   1.6193   1.6879   2.0034

          k = 0.5000-0.8660 0.0000 ( 59292 PWs)   bands (ev):

   -72.8826 -72.8733 -44.4419 -44.3518 -44.2810 -44.2721 -44.2548 -44.2459
   -21.0499 -21.0473 -20.4719 -20.4624 -19.4298 -19.4195 -19.4141 -19.4085
   -18.9924 -18.9899 -18.3259 -18.3205 -18.3164 -18.3153 -17.7961 -17.7872
   -12.0713 -12.0657 -12.0632 -12.0622 -11.8803 -11.8718 -11.3295 -11.3280
   -10.2366 -10.2307 -10.1367 -10.1334 -10.1299 -10.1257  -8.5915  -8.5501
    -8.5474  -8.5451  -8.5444  -8.5383  -7.8657  -7.8639  -7.8590  -7.8573
    -7.8258  -7.8198  -7.7839  -7.7513  -7.4901  -7.4875  -6.6136  -6.6065
    -6.3623  -6.3324  -6.3054  -6.2929  -6.1900  -6.1885  -5.7122  -5.6967
    -5.5459  -5.5427  -4.7300  -4.7214  -4.6956  -4.6909  -3.8915  -3.8651
    -2.8946  -2.0612  -2.0418  -1.8471  -1.6412  -1.5841  -1.4767  -1.4619
    -1.3679  -1.3565  -1.3094  -0.8392   0.7676   0.9998   1.1197   1.1547
     1.3705   1.5716   1.5871   1.6070   1.7380   1.7604

          k =-1.0000 0.0000 0.0000 ( 59292 PWs)   bands (ev):

   -72.8826 -72.8733 -44.4420 -44.3518 -44.2810 -44.2720 -44.2548 -44.2458
   -21.0746 -21.0198 -20.4762 -20.4628 -19.4244 -19.4210 -19.4202 -19.4003
   -19.0132 -18.9705 -18.3713 -18.3356 -18.2918 -18.2804 -17.7982 -17.7868
   -12.1024 -12.0815 -12.0396 -12.0348 -11.8820 -11.8709 -11.3508 -11.3089
   -10.2423 -10.2396 -10.1326 -10.1313 -10.1249 -10.1239  -8.6323  -8.5750
    -8.5580  -8.5280  -8.5172  -8.4912  -7.8754  -7.8695  -7.8608  -7.8604
    -7.8166  -7.8140  -7.7897  -7.7594  -7.5140  -7.4658  -6.6128  -6.6046
    -6.3558  -6.3300  -6.3082  -6.2799  -6.2088  -6.1725  -5.7378  -5.6777
    -5.5668  -5.5222  -4.7948  -4.7535  -4.6490  -4.6440  -3.8885  -3.8702
    -2.9098  -2.0635  -2.0423  -1.8451  -1.6382  -1.5847  -1.4771  -1.4614
    -1.3607  -1.3513  -1.3055  -0.6752   0.5444   0.7672   1.0619   1.1154
     1.1898   1.5489   1.5773   1.5999   1.6416   1.9367

 ------ SPIN DOWN ----------


          k = 0.1667 0.2887 0.0000 ( 59267 PWs)   bands (ev):

   -68.6888 -68.6780 -40.3832 -40.2770 -40.1022 -40.0916 -40.0566 -40.0459
   -21.2435 -20.6567 -20.6533 -20.1009 -20.0936 -19.5834 -19.5806 -19.0961
   -18.6931 -18.6884 -18.4541 -18.4473 -18.1908 -18.0819 -18.0757 -17.8462
   -12.4822 -12.2048 -12.1994 -11.8190 -11.8163 -11.6570 -11.1893 -11.1875
   -10.3897 -10.3658 -10.1152 -10.1130  -9.5869  -9.5864  -8.8247  -8.8206
    -8.8166  -8.7639  -8.7606  -8.5947  -8.1954  -8.0307  -8.0043  -7.8274
    -7.8252  -7.4360  -7.4344  -7.2634  -7.2460  -7.2061  -7.2049  -6.9593
    -6.9530  -6.5479  -6.5279  -6.1517  -6.1511  -5.8563  -5.4161  -5.2745
    -5.2623  -5.1981  -4.8980  -4.8887  -4.4910  -4.3425  -4.3313  -3.9664
    -1.4578   0.3935   0.7886   0.9855   1.1118   1.1868   1.2682   1.3489
     1.4170   1.4907   1.5533   1.6019   1.6404   1.7413   1.9003   1.9709
     2.0451   2.1023   2.1482   2.1851   2.2986   2.3465

          k = 0.1667-0.4811 0.0000 ( 59291 PWs)   bands (ev):

   -68.6888 -68.6780 -40.3832 -40.2770 -40.1022 -40.0916 -40.0566 -40.0459
   -21.1129 -20.9094 -20.7196 -20.1575 -19.8011 -19.4633 -19.3137 -19.1712
   -19.0111 -18.7755 -18.6369 -18.5416 -18.1441 -18.0876 -17.9186 -17.7204
   -12.3462 -12.1113 -12.0429 -11.9046 -11.6789 -11.6569 -11.5508 -10.9400
   -10.8879 -10.6213 -10.5212  -9.8579  -9.6914  -9.3338  -9.1090  -8.6457
    -8.6208  -8.5507  -8.3873  -8.3560  -8.1596  -8.1063  -8.0610  -8.0484
    -7.6865  -7.6215  -7.4922  -7.4726  -7.3392  -7.1685  -7.0659  -6.8455
    -6.6195  -6.3743  -6.1625  -6.1559  -5.9576  -5.9267  -5.7816  -5.7308
    -5.4495  -5.3831  -5.1880  -5.0332  -4.4250  -4.3419  -4.0760  -3.7545
    -1.4487   0.3812   0.7839   0.9497   1.0501   1.1292   1.1994   1.2809
     1.3610   1.4127   1.5748   1.7334   1.7939   1.8765   1.9036   2.0764
     2.1195   2.1406   2.1678   2.2247   2.3085   2.3440

          k = 0.1667-0.0962 0.0000 ( 59226 PWs)   bands (ev):

   -68.6888 -68.6780 -40.3832 -40.2770 -40.1023 -40.0916 -40.0566 -40.0458
   -21.3100 -20.5319 -20.3438 -20.3347 -19.9861 -19.9762 -19.8031 -18.7268
   -18.7173 -18.3716 -18.3645 -18.3515 -18.2658 -18.2581 -18.0755 -18.0675
   -12.5058 -12.5001 -12.4063 -11.5801 -11.5739 -11.4249 -11.4183 -10.9244
   -10.9215  -9.9277  -9.9239  -9.6734  -9.3729  -9.3704  -9.2279  -9.2256
    -9.0405  -9.0384  -8.9058  -8.3216  -8.3186  -7.8995  -7.8973  -7.8600
    -7.8417  -7.7686  -7.5952  -7.5703  -7.1136  -7.0790  -6.9572  -6.8865
    -6.8833  -6.8411  -6.5299  -6.5258  -6.2556  -5.3308  -5.3027  -5.1411
    -5.0632  -4.7914  -4.7845  -4.7374  -4.6019  -4.5948  -4.3404  -4.3204
    -1.4670   0.4076   0.7943   0.9849   1.0753   1.1468   1.2111   1.3160
     1.4679   1.5370   1.6077   1.6909   1.7788   1.8599   1.8898   1.9355
     1.9808   2.0554   2.1290   2.1460   2.2518   2.3168

          k =-0.5000-0.8660 0.0000 ( 59292 PWs)   bands (ev):

   -68.6888 -68.6780 -40.3832 -40.2770 -40.1023 -40.0916 -40.0565 -40.0459
   -21.0459 -21.0438 -20.4681 -20.4592 -19.4245 -19.4155 -19.4109 -19.4053
   -18.9887 -18.9862 -18.3202 -18.3175 -18.3148 -18.3095 -17.7918 -17.7837
   -12.0676 -12.0641 -12.0619 -12.0593 -11.8779 -11.8702 -11.3269 -11.3257
   -10.2338 -10.2287 -10.1335 -10.1307 -10.1273 -10.1236  -8.5638  -8.5449
    -8.5442  -8.5432  -8.5419  -8.5317  -7.8629  -7.8612  -7.8570  -7.8551
    -7.8220  -7.8165  -7.7667  -7.7409  -7.4882  -7.4848  -6.6105  -6.6045
    -6.3331  -6.3132  -6.2953  -6.2839  -6.1877  -6.1853  -5.6945  -5.6876
    -5.5434  -5.5399  -4.7083  -4.6989  -4.6880  -4.6852  -3.8749  -3.8554
    -1.4260   0.1463   0.7882   1.0335   1.0692   1.1258   1.2795   1.4187
     1.5181   1.5350   1.5894   1.6941   1.7610   1.8712   1.9232   1.9493
     1.9919   2.0436   2.1644   2.2252   2.3155   2.3486

          k =-0.1667 0.2887 0.0000 ( 59267 PWs)   bands (ev):

   -68.6888 -68.6780 -40.3832 -40.2770 -40.1022 -40.0916 -40.0566 -40.0459
   -21.2435 -20.6567 -20.6533 -20.1009 -20.0936 -19.5834 -19.5806 -19.0961
   -18.6930 -18.6884 -18.4541 -18.4473 -18.1908 -18.0819 -18.0757 -17.8462
   -12.4822 -12.2048 -12.1994 -11.8190 -11.8163 -11.6570 -11.1893 -11.1875
   -10.3897 -10.3657 -10.1152 -10.1131  -9.5869  -9.5864  -8.8247  -8.8205
    -8.8166  -8.7639  -8.7606  -8.5947  -8.1954  -8.0307  -8.0043  -7.8274
    -7.8252  -7.4360  -7.4344  -7.2634  -7.2460  -7.2060  -7.2048  -6.9594
    -6.9530  -6.5478  -6.5279  -6.1517  -6.1510  -5.8563  -5.4162  -5.2745
    -5.2623  -5.1980  -4.8980  -4.8887  -4.4910  -4.3425  -4.3313  -3.9664
    -1.4578   0.3935   0.7886   0.9855   1.1118   1.1868   1.2682   1.3489
     1.4169   1.4907   1.5532   1.6019   1.6404   1.7412   1.9003   1.9709
     2.0451   2.1023   2.1480   2.1852   2.2991   2.3465

          k = 0.3333 0.0000 0.0000 ( 59267 PWs)   bands (ev):

   -68.6888 -68.6780 -40.3832 -40.2770 -40.1023 -40.0916 -40.0565 -40.0459
   -21.2432 -20.6805 -20.6293 -20.1021 -20.0909 -19.6080 -19.5578 -19.0979
   -18.7081 -18.6690 -18.4575 -18.4455 -18.1868 -18.1026 -18.0607 -17.8455
   -12.4818 -12.2066 -12.1975 -11.8274 -11.8100 -11.6550 -11.2069 -11.1705
   -10.3890 -10.3655 -10.1273 -10.1013  -9.5931  -9.5792  -8.8317  -8.8201
    -8.8078  -8.7850  -8.7408  -8.5955  -8.1970  -8.0733  -7.9615  -7.8265
    -7.8242  -7.4415  -7.4285  -7.2727  -7.2327  -7.2153  -7.1955  -6.9619
    -6.9518  -6.5914  -6.4894  -6.1543  -6.1476  -5.8609  -5.4160  -5.2908
    -5.2384  -5.1984  -4.9047  -4.8839  -4.4845  -4.3669  -4.3160  -3.9654
    -1.4434   0.2260   0.8320   0.9916   1.0855   1.1527   1.2908   1.4356
     1.4771   1.4888   1.5526   1.7064   1.7669   1.8418   1.9052   1.9334
     2.0132   2.0862   2.1316   2.1941   2.3060   2.3307

          k =-0.1667-0.4811 0.0000 ( 59291 PWs)   bands (ev):

   -68.6888 -68.6780 -40.3832 -40.2770 -40.1022 -40.0916 -40.0566 -40.0459
   -21.1129 -20.9094 -20.7196 -20.1575 -19.8011 -19.4633 -19.3137 -19.1712
   -19.0111 -18.7755 -18.6369 -18.5416 -18.1441 -18.0876 -17.9186 -17.7204
   -12.3463 -12.1113 -12.0429 -11.9046 -11.6789 -11.6569 -11.5508 -10.9400
   -10.8880 -10.6213 -10.5212  -9.8579  -9.6914  -9.3339  -9.1090  -8.6457
    -8.6208  -8.5508  -8.3873  -8.3560  -8.1596  -8.1063  -8.0610  -8.0485
    -7.6865  -7.6215  -7.4921  -7.4726  -7.3392  -7.1685  -7.0659  -6.8454
    -6.6195  -6.3743  -6.1625  -6.1559  -5.9576  -5.9266  -5.7816  -5.7307
    -5.4495  -5.3831  -5.1880  -5.0332  -4.4249  -4.3420  -4.0760  -3.7545
    -1.4487   0.3812   0.7839   0.9497   1.0501   1.1292   1.1994   1.2809
     1.3610   1.4127   1.5748   1.7334   1.7939   1.8765   1.9038   2.0770
     2.1198   2.1406   2.1679   2.2246   2.3086   2.3449

          k = 0.5000-0.0962 0.0000 ( 59291 PWs)   bands (ev):

   -68.6888 -68.6780 -40.3832 -40.2770 -40.1022 -40.0916 -40.0566 -40.0459
   -21.1104 -20.9160 -20.7153 -20.1558 -19.8012 -19.4651 -19.3187 -19.1669
   -19.0119 -18.7764 -18.6278 -18.5470 -18.1332 -18.1021 -17.9162 -17.7201
   -12.3452 -12.1118 -12.0410 -11.9084 -11.6902 -11.6433 -11.5529 -10.9403
   -10.8859 -10.6197 -10.5235  -9.8558  -9.6920  -9.3348  -9.1085  -8.6384
    -8.6213  -8.5489  -8.3916  -8.3773  -8.1578  -8.0924  -8.0730  -8.0376
    -7.6829  -7.6220  -7.4913  -7.4737  -7.3347  -7.1698  -7.0666  -6.8450
    -6.6199  -6.3802  -6.1746  -6.1554  -5.9469  -5.9261  -5.7809  -5.7327
    -5.4505  -5.3840  -5.1711  -5.0434  -4.4073  -4.3638  -4.0736  -3.7541
    -1.4261   0.1481   0.7888   1.0089   1.0590   1.1282   1.1966   1.2874
     1.4135   1.5883   1.6872   1.7982   1.8599   1.9092   1.9633   1.9954
     2.0332   2.1136   2.2023   2.2380   2.3043   2.3555

          k =-0.3333-0.3849 0.0000 ( 59291 PWs)   bands (ev):

   -68.6888 -68.6780 -40.3832 -40.2770 -40.1022 -40.0916 -40.0566 -40.0459
   -21.1113 -20.9137 -20.7170 -20.1556 -19.8030 -19.4633 -19.3143 -19.1701
   -19.0145 -18.7749 -18.6290 -18.5463 -18.1354 -18.0994 -17.9163 -17.7202
   -12.3458 -12.1099 -12.0432 -11.9074 -11.6799 -11.6549 -11.5520 -10.9402
   -10.8856 -10.6192 -10.5243  -9.8564  -9.6921  -9.3343  -9.1093  -8.6405
    -8.6202  -8.5506  -8.3886  -8.3697  -8.1592  -8.0978  -8.0609  -8.0508
    -7.6832  -7.6206  -7.4974  -7.4682  -7.3338  -7.1699  -7.0671  -6.8507
    -6.6181  -6.3750  -6.1633  -6.1570  -5.9554  -5.9251  -5.7811  -5.7392
    -5.4504  -5.3802  -5.1720  -5.0435  -4.4095  -4.3614  -4.0733  -3.7543
    -1.4338   0.2134   0.7760   0.9991   1.0593   1.1343   1.2131   1.2958
     1.3907   1.5041   1.6817   1.7746   1.8616   1.9033   1.9434   2.0114
     2.0609   2.0859   2.1462   2.2212   2.3181   2.3450

          k = 0.5000 0.0962 0.0000 ( 59291 PWs)   bands (ev):

   -68.6888 -68.6780 -40.3832 -40.2770 -40.1022 -40.0916 -40.0566 -40.0459
   -21.1104 -20.9160 -20.7153 -20.1558 -19.8012 -19.4651 -19.3187 -19.1669
   -19.0119 -18.7764 -18.6278 -18.5470 -18.1332 -18.1021 -17.9162 -17.7201
   -12.3452 -12.1119 -12.0410 -11.9084 -11.6902 -11.6433 -11.5529 -10.9403
   -10.8859 -10.6198 -10.5236  -9.8558  -9.6920  -9.3347  -9.1085  -8.6384
    -8.6213  -8.5489  -8.3916  -8.3773  -8.1578  -8.0924  -8.0730  -8.0375
    -7.6830  -7.6219  -7.4913  -7.4738  -7.3347  -7.1699  -7.0666  -6.8450
    -6.6198  -6.3802  -6.1746  -6.1553  -5.9470  -5.9260  -5.7810  -5.7327
    -5.4505  -5.3840  -5.1711  -5.0434  -4.4073  -4.3638  -4.0736  -3.7541
    -1.4261   0.1481   0.7888   1.0089   1.0590   1.1282   1.1966   1.2874
     1.4135   1.5882   1.6872   1.7982   1.8599   1.9092   1.9632   1.9953
     2.0331   2.1137   2.2023   2.2380   2.3042   2.3555

          k =-0.3333 0.3849 0.0000 ( 59291 PWs)   bands (ev):

   -68.6888 -68.6780 -40.3832 -40.2770 -40.1022 -40.0916 -40.0566 -40.0459
   -21.1113 -20.9137 -20.7169 -20.1556 -19.8030 -19.4633 -19.3143 -19.1701
   -19.0145 -18.7749 -18.6290 -18.5463 -18.1354 -18.0994 -17.9163 -17.7202
   -12.3458 -12.1099 -12.0432 -11.9074 -11.6799 -11.6549 -11.5519 -10.9402
   -10.8856 -10.6191 -10.5243  -9.8564  -9.6921  -9.3342  -9.1093  -8.6405
    -8.6202  -8.5506  -8.3887  -8.3697  -8.1593  -8.0978  -8.0609  -8.0508
    -7.6831  -7.6206  -7.4974  -7.4681  -7.3338  -7.1698  -7.0672  -6.8507
    -6.6181  -6.3750  -6.1633  -6.1571  -5.9554  -5.9252  -5.7810  -5.7392
    -5.4503  -5.3802  -5.1721  -5.0435  -4.4096  -4.3614  -4.0732  -3.7543
    -1.4338   0.2134   0.7760   0.9991   1.0593   1.1343   1.2131   1.2958
     1.3907   1.5041   1.6817   1.7746   1.8616   1.9033   1.9435   2.0116
     2.0609   2.0859   2.1461   2.2211   2.3183   2.3455

          k =-0.1667-0.0962 0.0000 ( 59226 PWs)   bands (ev):

   -68.6888 -68.6780 -40.3832 -40.2770 -40.1023 -40.0916 -40.0566 -40.0458
   -21.3100 -20.5319 -20.3438 -20.3347 -19.9861 -19.9762 -19.8031 -18.7268
   -18.7173 -18.3716 -18.3645 -18.3515 -18.2658 -18.2581 -18.0755 -18.0675
   -12.5058 -12.5001 -12.4062 -11.5801 -11.5739 -11.4249 -11.4183 -10.9244
   -10.9215  -9.9277  -9.9240  -9.6734  -9.3729  -9.3704  -9.2279  -9.2257
    -9.0404  -9.0384  -8.9058  -8.3217  -8.3186  -7.8995  -7.8973  -7.8600
    -7.8417  -7.7687  -7.5952  -7.5703  -7.1136  -7.0790  -6.9573  -6.8865
    -6.8833  -6.8412  -6.5299  -6.5257  -6.2557  -5.3308  -5.3027  -5.1410
    -5.0633  -4.7913  -4.7845  -4.7374  -4.6019  -4.5948  -4.3404  -4.3204
    -1.4670   0.4076   0.7943   0.9849   1.0753   1.1468   1.2111   1.3159
     1.4680   1.5370   1.6077   1.6909   1.7788   1.8598   1.8899   1.9355
     1.9806   2.0553   2.1290   2.1459   2.2517   2.3169

          k =-0.0000-0.1925 0.0000 ( 59226 PWs)   bands (ev):

   -68.6888 -68.6780 -40.3832 -40.2769 -40.1023 -40.0916 -40.0566 -40.0459
   -21.3101 -20.5275 -20.3495 -20.3368 -19.9835 -19.9722 -19.8062 -18.7262
   -18.7147 -18.3875 -18.3680 -18.3492 -18.2533 -18.2522 -18.0790 -18.0682
   -12.5076 -12.4985 -12.4061 -11.5819 -11.5736 -11.4245 -11.4158 -10.9257
   -10.9219  -9.9270  -9.9245  -9.6738  -9.3732  -9.3690  -9.2278  -9.2264
    -9.0403  -9.0389  -8.9062  -8.3214  -8.3181  -7.8987  -7.8970  -7.8505
    -7.8378  -7.7702  -7.6092  -7.5802  -7.0972  -7.0763  -6.9560  -6.8881
    -6.8831  -6.8496  -6.5303  -6.5247  -6.2562  -5.3246  -5.3030  -5.1412
    -5.0630  -4.8117  -4.7898  -4.7384  -4.5880  -4.5815  -4.3423  -4.3247
    -1.4738   0.5399   0.7590   0.9645   1.0867   1.1541   1.1971   1.2909
     1.4455   1.4844   1.5280   1.6198   1.7283   1.8428   1.9336   1.9362
     2.0638   2.0734   2.1569   2.1657   2.2033   2.3248

          k = 0.5000-0.8660 0.0000 ( 59292 PWs)   bands (ev):

   -68.6888 -68.6780 -40.3832 -40.2770 -40.1023 -40.0916 -40.0565 -40.0459
   -21.0459 -21.0438 -20.4681 -20.4592 -19.4245 -19.4155 -19.4109 -19.4053
   -18.9887 -18.9862 -18.3201 -18.3176 -18.3148 -18.3095 -17.7918 -17.7836
   -12.0675 -12.0642 -12.0619 -12.0592 -11.8779 -11.8702 -11.3269 -11.3257
   -10.2338 -10.2287 -10.1335 -10.1307 -10.1273 -10.1236  -8.5638  -8.5449
    -8.5442  -8.5433  -8.5418  -8.5317  -7.8629  -7.8612  -7.8569  -7.8552
    -7.8221  -7.8166  -7.7667  -7.7409  -7.4883  -7.4848  -6.6104  -6.6044
    -6.3331  -6.3132  -6.2952  -6.2839  -6.1877  -6.1852  -5.6945  -5.6876
    -5.5435  -5.5400  -4.7082  -4.6989  -4.6880  -4.6852  -3.8749  -3.8554
    -1.4260   0.1463   0.7882   1.0335   1.0692   1.1259   1.2795   1.4187
     1.5181   1.5350   1.5894   1.6942   1.7610   1.8714   1.9232   1.9493
     1.9918   2.0440   2.1645   2.2254   2.3162   2.3488

          k =-1.0000 0.0000 0.0000 ( 59292 PWs)   bands (ev):

   -68.6888 -68.6780 -40.3832 -40.2770 -40.1023 -40.0916 -40.0566 -40.0458
   -21.0693 -21.0179 -20.4720 -20.4595 -19.4205 -19.4165 -19.4165 -19.3975
   -19.0074 -18.9688 -18.3636 -18.3292 -18.2904 -18.2797 -17.7937 -17.7831
   -12.0989 -12.0782 -12.0382 -12.0340 -11.8797 -11.8691 -11.3472 -11.3074
   -10.2394 -10.2365 -10.1297 -10.1290 -10.1223 -10.1221  -8.6020  -8.5707
    -8.5551  -8.5268  -8.5164  -8.4874  -7.8721  -7.8663  -7.8580  -7.8578
    -7.8119  -7.8111  -7.7720  -7.7470  -7.5103  -7.4646  -6.6101  -6.6025
    -6.3313  -6.3121  -6.2967  -6.2720  -6.2048  -6.1706  -5.7192  -5.6672
    -5.5626  -5.5210  -4.7643  -4.7306  -4.6463  -4.6418  -3.8740  -3.8577
    -1.4559   0.4997   0.8093   0.9296   1.0459   1.1354   1.1965   1.2748
     1.3433   1.4952   1.5851   1.6420   1.6737   1.7930   1.8615   1.8876
     2.1299   2.1485   2.1671   2.1916   2.3298   2.3339

     the Fermi energy is    -1.1713 ev

!    total energy              =   -1133.82824247 Ry

     total all-electron energy =     -6753.503945 Ry
     estimated scf accuracy    <       0.00000004 Ry
     smearing contrib. (-TS)   =      -0.00000000 Ry
     internal energy E=F+TS    =   -1133.82824247 Ry

     The total energy is F=E-TS. E is the sum of the following terms:
     one-electron contribution =   -3954.33914425 Ry
     hartree contribution      =    2005.35799972 Ry
     xc contribution           =    -186.02204906 Ry
     ewald contribution        =    1360.55190157 Ry
     DFT-D3 Dispersion         =      -0.13353422 Ry
     one-center paw contrib.   =    -359.24341622 Ry

     total magnetization       =    10.00 Bohr mag/cell
     absolute magnetization    =    10.01 Bohr mag/cell

     convergence has been achieved in  14 iterations

     Writing output data file ./mytmp/Crdimer0.14-0.0.save/
 
     init_run     :     18.80s CPU     20.15s WALL (       1 calls)
     electrons    :    517.83s CPU    562.52s WALL (       1 calls)

     Called by init_run:
     wfcinit      :     13.85s CPU     14.63s WALL (       1 calls)
     potinit      :      1.50s CPU      1.57s WALL (       1 calls)
     hinit0       :      1.52s CPU      1.60s WALL (       1 calls)

     Called by electrons:
     c_bands      :    402.93s CPU    428.21s WALL (      14 calls)
     sum_band     :     81.12s CPU     92.83s WALL (      14 calls)
     v_of_rho     :      7.55s CPU      8.33s WALL (      15 calls)
     newd         :     18.34s CPU     25.32s WALL (      15 calls)
     PAW_pot      :      7.42s CPU      7.50s WALL (      15 calls)
     mix_rho      :      0.97s CPU      1.08s WALL (      14 calls)

     Called by c_bands:
     init_us_2    :      5.01s CPU      5.07s WALL (     870 calls)
     cegterg      :    390.54s CPU    415.74s WALL (     420 calls)

     Called by *egterg:
     cdiaghg      :     24.13s CPU     38.29s WALL (    2657 calls)
     h_psi        :    240.06s CPU    249.92s WALL (    2687 calls)
     s_psi        :     26.48s CPU     26.56s WALL (    2687 calls)
     g_psi        :      0.68s CPU      0.70s WALL (    2237 calls)

     Called by h_psi:
     h_psi:calbec :     28.90s CPU     29.48s WALL (    2687 calls)
     vloc_psi     :    181.76s CPU    190.90s WALL (    2687 calls)
     add_vuspsi   :     27.25s CPU     27.36s WALL (    2687 calls)

     General routines
     calbec       :     38.57s CPU     39.39s WALL (    3107 calls)
     fft          :      9.53s CPU     14.06s WALL (     369 calls)
     ffts         :      0.11s CPU      0.12s WALL (      58 calls)
     fftw         :    187.77s CPU    197.13s WALL (  246684 calls)
     interpolate  :      0.41s CPU      0.43s WALL (      30 calls)
 
     Parallel routines
     fft_scatt_xy :     30.14s CPU     31.37s WALL (  247111 calls)
     fft_scatt_yz :     79.57s CPU     88.52s WALL (  247111 calls)
 
     PWSCF        :   8m58.65s CPU   9m47.38s WALL

 
   This run was terminated on:  14: 4: 4  31Mar2021            

=------------------------------------------------------------------------------=
   JOB DONE.
=------------------------------------------------------------------------------=
