
     Program PWSCF v.6.7MaX starts on 31Mar2021 at 11:58: 7 

     This program is part of the open-source Quantum ESPRESSO suite
     for quantum simulation of materials; please cite
         "P. Giannozzi et al., J. Phys.:Condens. Matter 21 395502 (2009);
         "P. Giannozzi et al., J. Phys.:Condens. Matter 29 465901 (2017);
          URL http://www.quantum-espresso.org", 
     in publications or presentations arising from this work. More details at
     http://www.quantum-espresso.org/quote

     Parallel version (MPI), running on    48 processors

     MPI processes distributed on     1 nodes
     R & G space division:  proc/nbgrp/npool/nimage =      48
     Reading input from Crdimer0.12-0.0.scf.in

     Current dimensions of program PWSCF are:
     Max number of different atomic species (ntypx) = 10
     Max number of k-points (npk) =  40000
     Max angular momentum in pseudopotentials (lmaxx) =  3
     file N.pbe-n-kjpaw_psl.1.0.0.UPF: wavefunction(s)  2S renormalized
     file Cr.pbe-spn-kjpaw_psl.1.0.0.UPF: wavefunction(s)  3S 3P 3D renormalized
     file Cr.pbe-spn-kjpaw_psl.1.0.0.UPF: wavefunction(s)  3S 3P 3D renormalized

     --------------------------------------------
     Parameters for DFT-D3 Dispersion Correction:
     --------------------------------------------
       Reference C6 values for interpolation: 

         atom   Coordination number   C6
         B          0.000           214.36
         B          0.971           150.74
         B          1.944           106.23
         B          2.913            62.89
         B          4.586            56.06
         N          0.000            50.54
         N          0.994            44.25
         N          2.014            39.35
         N          2.990            31.16
         Cr1        0.000          1381.48
         Cr1        1.827           571.38
         Cr1       10.619           306.69
         Cr2        0.000          1381.48
         Cr2        1.827           571.38
         Cr2       10.619           306.69

       Values used:

         atom   Coordination number  R0_AB[au]  C6      C8
         B          3.336            3.039     62.89   2505.99
         B          3.336            3.039     62.89   2505.99
         B          3.376            3.039     62.86   2504.87
         B          3.336            3.039     62.89   2506.00
         B          3.340            3.039     62.89   2505.88
         B          3.340            3.039     62.89   2505.88
         N          3.134            2.478     31.22    688.70
         N          3.134            2.478     31.22    688.70
         N          3.159            2.478     31.21    688.48
         N          3.135            2.478     31.22    688.68
         N          3.135            2.478     31.22    688.69
         N          3.134            2.478     31.22    688.69
         N          3.135            2.478     31.22    688.69
         N          3.134            2.478     31.22    688.70
         N          3.144            2.478     31.21    688.61
         B          3.335            3.039     62.89   2506.01
         B          3.336            3.039     62.89   2505.99
         B          3.340            3.039     62.89   2505.88
         B          3.340            3.039     62.89   2505.88
         B          3.336            3.039     62.89   2505.99
         B          3.335            3.039     62.89   2506.01
         N          3.135            2.478     31.22    688.69
         B          3.335            3.039     62.89   2506.01
         B          3.335            3.039     62.89   2506.01
         B          3.353            3.039     62.88   2505.54
         N          3.134            2.478     31.22    688.69
         N          3.134            2.478     31.22    688.70
         N          3.139            2.478     31.22    688.65
         N          3.139            2.478     31.22    688.65
         N          3.159            2.478     31.21    688.48
         N          3.135            2.478     31.22    688.68
         B          3.353            3.039     62.88   2505.54
         Cr1        1.066            3.252    629.34  58081.22
         Cr2        1.066            3.252    629.34  58081.22

         Molecular C6 ( Ry / a.u.^6 ) =     69189.68


     Subspace diagonalization in iterative solution of the eigenvalue problem:
     one sub-group per band group will be used
     scalapack distributed-memory algorithm (size of sub-group:  6*  6 procs)

 
     Parallelization info
     --------------------
     sticks:   dense  smooth     PW     G-vecs:    dense   smooth      PW
     Min         235      98     26                36277     9874    1408
     Max         236      99     27                36282     9883    1425
     Sum       11311    4741   1285              1741401   474235   68095
 


     bravais-lattice index     =            4
     lattice parameter (alat)  =      18.9275  a.u.
     unit-cell volume          =   10553.3021 (a.u.)^3
     number of atoms/cell      =           34
     number of atomic types    =            4
     number of electrons       =       156.00
     number of Kohn-Sham states=           94
     kinetic-energy cutoff     =      48.0000  Ry
     charge density cutoff     =     457.0000  Ry
     scf convergence threshold =      1.0E-07
     mixing beta               =       0.5000
     number of iterations used =            8  plain     mixing
     Exchange-correlation= SLA  PW   PBX  PBC
                           (   1   4   3   4   0   0   0)

     celldm(1)=  18.927497  celldm(2)=   0.000000  celldm(3)=   1.797125
     celldm(4)=   0.000000  celldm(5)=   0.000000  celldm(6)=   0.000000

     crystal axes: (cart. coord. in units of alat)
               a(1) = (   1.000000   0.000000   0.000000 )  
               a(2) = (  -0.500000   0.866025   0.000000 )  
               a(3) = (   0.000000   0.000000   1.797125 )  

     reciprocal axes: (cart. coord. in units 2 pi/alat)
               b(1) = (  1.000000  0.577350  0.000000 )  
               b(2) = (  0.000000  1.154701  0.000000 )  
               b(3) = (  0.000000  0.000000  0.556444 )  


     PseudoPot. # 1 for B  read from file:
     /home/sf05/q-e-qe-6.7MaX-Release/pseudo/B.pbe-n-kjpaw_psl.1.0.0.UPF
     MD5 check sum: d9c678ba5d3b2fd7b74e61139c9288d8
     Pseudo is Projector augmented-wave + core cor, Zval =  3.0
     Generated using "atomic" code by A. Dal Corso  v.5.1.2
     Shape of augmentation charge: PSQ
     Using radial grid of 1059 points,  4 beta functions with: 
                l(1) =   0
                l(2) =   0
                l(3) =   1
                l(4) =   1
     Q(r) pseudized with 0 coefficients 


     PseudoPot. # 2 for N  read from file:
     /home/sf05/q-e-qe-6.7MaX-Release/pseudo/N.pbe-n-kjpaw_psl.1.0.0.UPF
     MD5 check sum: e0e4e94a9c4025c5b51bd7d8793849bd
     Pseudo is Projector augmented-wave + core cor, Zval =  5.0
     Generated using "atomic" code by A. Dal Corso  v.5.1.2
     Shape of augmentation charge: PSQ
     Using radial grid of 1085 points,  4 beta functions with: 
                l(1) =   0
                l(2) =   0
                l(3) =   1
                l(4) =   1
     Q(r) pseudized with 0 coefficients 


     PseudoPot. # 3 for Cr read from file:
     /home/sf05/q-e-qe-6.7MaX-Release/pseudo/Cr.pbe-spn-kjpaw_psl.1.0.0.UPF
     MD5 check sum: 198f1a2427a48552563eee314eba32ba
     Pseudo is Projector augmented-wave + core cor, Zval = 14.0
     Generated using &quot;atomic&quot; code by A. Dal Corso  v.6.3
     Shape of augmentation charge: PSQ
     Using radial grid of 1183 points,  6 beta functions with: 
                l(1) =   0
                l(2) =   0
                l(3) =   1
                l(4) =   1
                l(5) =   2
                l(6) =   2
     Q(r) pseudized with 0 coefficients 


     PseudoPot. # 4 for Cr read from file:
     /home/sf05/q-e-qe-6.7MaX-Release/pseudo/Cr.pbe-spn-kjpaw_psl.1.0.0.UPF
     MD5 check sum: 198f1a2427a48552563eee314eba32ba
     Pseudo is Projector augmented-wave + core cor, Zval = 14.0
     Generated using &quot;atomic&quot; code by A. Dal Corso  v.6.3
     Shape of augmentation charge: PSQ
     Using radial grid of 1183 points,  6 beta functions with: 
                l(1) =   0
                l(2) =   0
                l(3) =   1
                l(4) =   1
                l(5) =   2
                l(6) =   2
     Q(r) pseudized with 0 coefficients 


     atomic species   valence    mass     pseudopotential
        B              3.00    10.81100     B ( 1.00)
        N              5.00    14.00674     N ( 1.00)
        Cr1           14.00    51.99610     Cr( 1.00)
        Cr2           14.00    51.99610     Cr( 1.00)

     Starting magnetic structure 
     atomic species   magnetization
        B            0.000
        N            0.000
        Cr1          1.000
        Cr2          1.000

     No symmetry found



   Cartesian axes

     site n.     atom                  positions (alat units)
         1           B   tau(   1) = (  -0.1250000   0.2165064   0.8985623  )
         2           B   tau(   2) = (   0.3750000   0.6495191   0.8985623  )
         3           B   tau(   3) = (   0.2500000   0.0000000   0.8985623  )
         4           B   tau(   4) = (   0.7500000   0.0000000   0.8985623  )
         5           B   tau(   5) = (   0.1250000   0.2165064   0.8985623  )
         6           B   tau(   6) = (  -0.3750000   0.6495191   0.8985623  )
         7           N   tau(   7) = (   0.7500005   0.2886748   0.8985623  )
         8           N   tau(   8) = (   0.3750005   0.5051812   0.8985623  )
         9           N   tau(   9) = (   0.3750005   0.0721685   0.8985623  )
        10           N   tau(  10) = (   0.6250005   0.0721685   0.8985623  )
        11           N   tau(  11) = (   0.2500005   0.2886748   0.8985623  )
        12           N   tau(  12) = (   0.6250005   0.5051812   0.8985623  )
        13           N   tau(  13) = (   0.0000005   0.2886748   0.8985623  )
        14           N   tau(  14) = (   0.2500005   0.7216875   0.8985623  )
        15           N   tau(  15) = (  -0.2499995   0.7216875   0.8985623  )
        16           B   tau(  16) = (   0.0000000   0.4330127   0.8985623  )
        17           B   tau(  17) = (   0.1250000   0.6495191   0.8985623  )
        18           B   tau(  18) = (  -0.1250000   0.6495191   0.8985623  )
        19           B   tau(  19) = (   0.3750000   0.2165064   0.8985623  )
        20           B   tau(  20) = (   0.6250000   0.2165064   0.8985623  )
        21           B   tau(  21) = (   0.5000000   0.4330127   0.8985623  )
        22           N   tau(  22) = (   0.5000005   0.2886748   0.8985623  )
        23           B   tau(  23) = (  -0.2500000   0.4330127   0.8985623  )
        24           B   tau(  24) = (   0.2500000   0.4330127   0.8985623  )
        25           B   tau(  25) = (   0.5000000   0.0000000   0.8985623  )
        26           N   tau(  26) = (  -0.1249995   0.5051812   0.8985623  )
        27           N   tau(  27) = (   0.1250005   0.5051812   0.8985623  )
        28           N   tau(  28) = (   0.0000005   0.7216875   0.8985623  )
        29           N   tau(  29) = (   0.5000005   0.7216875   0.8985623  )
        30           N   tau(  30) = (   0.1250005   0.0721685   0.8985623  )
        31           N   tau(  31) = (   0.8750005   0.0721685   0.8985623  )
        32           B   tau(  32) = (   0.0000000   0.0000000   0.8985623  )
        33           Cr1 tau(  33) = (   0.3700000   0.0000000   1.2040735  )
        34           Cr2 tau(  34) = (   0.1300000   0.0000000   1.2040735  )

     number of k points=    15  Gaussian smearing, width (Ry)=  0.0000
                       cart. coord. in units 2pi/alat
        k(    1) = (   0.1666667   0.2886751   0.0000000), wk =   0.0740741
        k(    2) = (   0.1666667  -0.4811252   0.0000000), wk =   0.0740741
        k(    3) = (   0.1666667  -0.0962250   0.0000000), wk =   0.0740741
        k(    4) = (  -0.5000000  -0.8660254   0.0000000), wk =   0.0370370
        k(    5) = (  -0.1666667   0.2886751   0.0000000), wk =   0.0740741
        k(    6) = (   0.3333333   0.0000000   0.0000000), wk =   0.0740741
        k(    7) = (  -0.1666667  -0.4811252   0.0000000), wk =   0.0740741
        k(    8) = (   0.5000000  -0.0962250   0.0000000), wk =   0.0740741
        k(    9) = (  -0.3333333  -0.3849002   0.0000000), wk =   0.0740741
        k(   10) = (   0.5000000   0.0962250   0.0000000), wk =   0.0740741
        k(   11) = (  -0.3333333   0.3849002   0.0000000), wk =   0.0740741
        k(   12) = (  -0.1666667  -0.0962250   0.0000000), wk =   0.0740741
        k(   13) = (  -0.0000000  -0.1924501   0.0000000), wk =   0.0740741
        k(   14) = (   0.5000000  -0.8660254   0.0000000), wk =   0.0370370
        k(   15) = (  -1.0000000   0.0000000   0.0000000), wk =   0.0370370

     Dense  grid:  1741401 G-vectors     FFT dimensions: ( 135, 135, 240)

     Smooth grid:   474235 G-vectors     FFT dimensions: (  90,  90, 160)

     Estimated max dynamical RAM per process >     218.62 MB

     Estimated total dynamical RAM >      10.25 GB
     Generating pointlists ...
     new r_m :   0.0595 (alat units)  1.1269 (a.u.) for type    1
     new r_m :   0.0595 (alat units)  1.1269 (a.u.) for type    2
     new r_m :   0.0990 (alat units)  1.8738 (a.u.) for type    3
     new r_m :   0.0990 (alat units)  1.8738 (a.u.) for type    4

     Initial potential from superposition of free atoms

     starting charge  155.99382, renormalised to  156.00000

     negative rho (up, down):  6.807E-03 4.655E-04
     Starting wfcs are  148 randomized atomic wfcs
     Checking if some PAW data can be deallocated... 

     total cpu time spent up to now is       19.7 secs

     Self-consistent Calculation

     iteration #  1     ecut=    48.00 Ry     beta= 0.50
     Davidson diagonalization with overlap
     ethr =  1.00E-02,  avg # of iterations =  2.8

     negative rho (up, down):  5.047E-03 2.910E-03

     total cpu time spent up to now is       60.2 secs

     total energy              =   -1130.68513748 Ry
     estimated scf accuracy    <      11.35921244 Ry

     total magnetization       =    12.00 Bohr mag/cell
     absolute magnetization    =    12.10 Bohr mag/cell

     iteration #  2     ecut=    48.00 Ry     beta= 0.50
     Davidson diagonalization with overlap
     ethr =  7.28E-03,  avg # of iterations =  2.8

     negative rho (up, down):  9.150E-03 7.573E-03

     total cpu time spent up to now is       97.6 secs

     total energy              =   -1132.96440799 Ry
     estimated scf accuracy    <       3.56563137 Ry

     total magnetization       =    10.00 Bohr mag/cell
     absolute magnetization    =    10.10 Bohr mag/cell

     iteration #  3     ecut=    48.00 Ry     beta= 0.50
     Davidson diagonalization with overlap
     ethr =  2.29E-03,  avg # of iterations =  7.7

     negative rho (up, down):  4.467E-03 3.864E-03

     total cpu time spent up to now is      136.9 secs

     total energy              =   -1133.53156547 Ry
     estimated scf accuracy    <       0.90268615 Ry

     total magnetization       =    10.00 Bohr mag/cell
     absolute magnetization    =    10.10 Bohr mag/cell

     iteration #  4     ecut=    48.00 Ry     beta= 0.50
     Davidson diagonalization with overlap
     ethr =  5.79E-04,  avg # of iterations =  6.6

     negative rho (up, down):  8.475E-03 8.259E-03

     total cpu time spent up to now is      172.9 secs

     total energy              =   -1133.72073164 Ry
     estimated scf accuracy    <       0.64338550 Ry

     total magnetization       =    10.00 Bohr mag/cell
     absolute magnetization    =    10.01 Bohr mag/cell

     iteration #  5     ecut=    48.00 Ry     beta= 0.50
     Davidson diagonalization with overlap
     ethr =  4.12E-04,  avg # of iterations =  6.1

     negative rho (up, down):  4.647E-03 4.965E-03

     total cpu time spent up to now is      208.5 secs

     total energy              =   -1133.78758108 Ry
     estimated scf accuracy    <       0.05507826 Ry

     total magnetization       =    10.00 Bohr mag/cell
     absolute magnetization    =    10.02 Bohr mag/cell

     iteration #  6     ecut=    48.00 Ry     beta= 0.50
     Davidson diagonalization with overlap
     ethr =  3.53E-05,  avg # of iterations =  9.8

     negative rho (up, down):  3.746E-03 4.141E-03

     total cpu time spent up to now is      252.4 secs

     total energy              =   -1133.79263060 Ry
     estimated scf accuracy    <       0.01421209 Ry

     total magnetization       =    10.00 Bohr mag/cell
     absolute magnetization    =    10.02 Bohr mag/cell

     iteration #  7     ecut=    48.00 Ry     beta= 0.50
     Davidson diagonalization with overlap
     ethr =  9.11E-06,  avg # of iterations =  7.9

     negative rho (up, down):  3.520E-03 4.028E-03

     total cpu time spent up to now is      292.0 secs

     total energy              =   -1133.79558500 Ry
     estimated scf accuracy    <       0.00611457 Ry

     total magnetization       =    10.00 Bohr mag/cell
     absolute magnetization    =    10.01 Bohr mag/cell

     iteration #  8     ecut=    48.00 Ry     beta= 0.50
     Davidson diagonalization with overlap
     ethr =  3.92E-06,  avg # of iterations =  6.7

     negative rho (up, down):  3.302E-03 3.928E-03

     total cpu time spent up to now is      328.7 secs

     total energy              =   -1133.79635339 Ry
     estimated scf accuracy    <       0.00110553 Ry

     total magnetization       =    10.00 Bohr mag/cell
     absolute magnetization    =    10.01 Bohr mag/cell

     iteration #  9     ecut=    48.00 Ry     beta= 0.50
     Davidson diagonalization with overlap
     ethr =  7.09E-07,  avg # of iterations =  3.9

     negative rho (up, down):  3.219E-03 3.911E-03

     total cpu time spent up to now is      360.2 secs

     total energy              =   -1133.79653314 Ry
     estimated scf accuracy    <       0.00011331 Ry

     total magnetization       =    10.00 Bohr mag/cell
     absolute magnetization    =    10.01 Bohr mag/cell

     iteration # 10     ecut=    48.00 Ry     beta= 0.50
     Davidson diagonalization with overlap
     ethr =  7.26E-08,  avg # of iterations =  4.3

     negative rho (up, down):  3.200E-03 3.918E-03

     total cpu time spent up to now is      399.5 secs

     total energy              =   -1133.79659321 Ry
     estimated scf accuracy    <       0.00001975 Ry

     total magnetization       =    10.00 Bohr mag/cell
     absolute magnetization    =    10.01 Bohr mag/cell

     iteration # 11     ecut=    48.00 Ry     beta= 0.50
     Davidson diagonalization with overlap
     ethr =  1.27E-08,  avg # of iterations =  3.7

     negative rho (up, down):  3.194E-03 3.931E-03

     total cpu time spent up to now is      432.6 secs

     total energy              =   -1133.79660990 Ry
     estimated scf accuracy    <       0.00000457 Ry

     total magnetization       =    10.00 Bohr mag/cell
     absolute magnetization    =    10.01 Bohr mag/cell

     iteration # 12     ecut=    48.00 Ry     beta= 0.50
     Davidson diagonalization with overlap
     ethr =  2.93E-09,  avg # of iterations =  4.0

     negative rho (up, down):  3.190E-03 3.940E-03

     total cpu time spent up to now is      465.8 secs

     total energy              =   -1133.79661546 Ry
     estimated scf accuracy    <       0.00000194 Ry

     total magnetization       =    10.00 Bohr mag/cell
     absolute magnetization    =    10.01 Bohr mag/cell

     iteration # 13     ecut=    48.00 Ry     beta= 0.50
     Davidson diagonalization with overlap
     ethr =  1.24E-09,  avg # of iterations =  4.0

     negative rho (up, down):  3.187E-03 3.940E-03

     total cpu time spent up to now is      498.6 secs

     total energy              =   -1133.79661772 Ry
     estimated scf accuracy    <       0.00000024 Ry

     total magnetization       =    10.00 Bohr mag/cell
     absolute magnetization    =    10.01 Bohr mag/cell

     iteration # 14     ecut=    48.00 Ry     beta= 0.50
     Davidson diagonalization with overlap
     ethr =  1.57E-10,  avg # of iterations =  4.5

     negative rho (up, down):  3.186E-03 3.939E-03
 
     Magnetic moment per site:
     atom:    1    charge:    0.8805    magn:    0.0001    constr:    0.0000
     atom:    2    charge:    0.8805    magn:    0.0004    constr:    0.0000
     atom:    3    charge:    0.8795    magn:   -0.0005    constr:    0.0000
     atom:    4    charge:    0.8806    magn:    0.0001    constr:    0.0000
     atom:    5    charge:    0.8802    magn:    0.0009    constr:    0.0000
     atom:    6    charge:    0.8800    magn:    0.0002    constr:    0.0000
     atom:    7    charge:    2.8610    magn:    0.0000    constr:    0.0000
     atom:    8    charge:    2.8609    magn:    0.0002    constr:    0.0000
     atom:    9    charge:    2.8611    magn:    0.0079    constr:    0.0000
     atom:   10    charge:    2.8610    magn:    0.0008    constr:    0.0000
     atom:   11    charge:    2.8607    magn:    0.0011    constr:    0.0000
     atom:   12    charge:    2.8609    magn:    0.0004    constr:    0.0000
     atom:   13    charge:    2.8599    magn:    0.0006    constr:    0.0000
     atom:   14    charge:    2.8599    magn:    0.0004    constr:    0.0000
     atom:   15    charge:    2.8594    magn:    0.0064    constr:    0.0000
     atom:   16    charge:    0.8800    magn:    0.0001    constr:    0.0000
     atom:   17    charge:    0.8802    magn:    0.0004    constr:    0.0000
     atom:   18    charge:    0.8797    magn:    0.0002    constr:    0.0000
     atom:   19    charge:    0.8796    magn:    0.0009    constr:    0.0000
     atom:   20    charge:    0.8799    magn:    0.0001    constr:    0.0000
     atom:   21    charge:    0.8797    magn:    0.0001    constr:    0.0000
     atom:   22    charge:    2.8612    magn:    0.0006    constr:    0.0000
     atom:   23    charge:    0.8798    magn:    0.0001    constr:    0.0000
     atom:   24    charge:    0.8799    magn:    0.0001    constr:    0.0000
     atom:   25    charge:    0.8805    magn:   -0.0000    constr:    0.0000
     atom:   26    charge:    2.8598    magn:    0.0004    constr:    0.0000
     atom:   27    charge:    2.8598    magn:    0.0002    constr:    0.0000
     atom:   28    charge:    2.8595    magn:    0.0035    constr:    0.0000
     atom:   29    charge:    2.8593    magn:    0.0035    constr:    0.0000
     atom:   30    charge:    2.8598    magn:    0.0079    constr:    0.0000
     atom:   31    charge:    2.8596    magn:    0.0008    constr:    0.0000
     atom:   32    charge:    0.8808    magn:   -0.0000    constr:    0.0000
     atom:   33    charge:   11.9900    magn:    3.8630    constr:    0.0000
     atom:   34    charge:   11.9899    magn:    3.8630    constr:    0.0000

     total cpu time spent up to now is      533.6 secs

     End of self-consistent calculation

 ------ SPIN UP ------------


          k = 0.1667 0.2887 0.0000 ( 59267 PWs)   bands (ev):

   -72.9964 -72.9367 -44.7340 -44.3695 -44.3422 -44.3404 -44.3241 -44.2965
   -21.2478 -20.6646 -20.6536 -20.1041 -20.0987 -19.5911 -19.5812 -19.1005
   -18.7014 -18.6896 -18.4573 -18.4528 -18.1962 -18.0872 -18.0782 -17.8507
   -12.4848 -12.2067 -12.2033 -11.8224 -11.8181 -11.6596 -11.1950 -11.1876
   -10.3927 -10.3687 -10.1206 -10.1140  -9.5912  -9.5878  -8.8406  -8.8258
    -8.8236  -8.7692  -8.7608  -8.5975  -8.1981  -8.0643  -8.0054  -7.8302
    -7.8281  -7.4408  -7.4368  -7.2782  -7.2650  -7.2102  -7.2064  -6.9610
    -6.9569  -6.5780  -6.5282  -6.1552  -6.1535  -5.8739  -5.4196  -5.3021
    -5.2728  -5.2013  -4.9101  -4.9053  -4.5110  -4.3584  -4.3402  -3.9814
    -3.3468  -2.5974  -2.5724  -2.2143  -1.8136  -1.7574  -1.4309  -1.4081
    -1.2049  -1.1697  -1.1185  -0.4505   0.5949   0.9376   0.9851   1.2194
     1.3235   1.4916   1.5306   1.5771   1.6176   1.8029

          k = 0.1667-0.4811 0.0000 ( 59291 PWs)   bands (ev):

   -72.9964 -72.9367 -44.7340 -44.3695 -44.3422 -44.3404 -44.3240 -44.2966
   -21.1174 -20.9132 -20.7236 -20.1617 -19.8053 -19.4675 -19.3183 -19.1754
   -19.0156 -18.7794 -18.6424 -18.5455 -18.1501 -18.0906 -17.9229 -17.7250
   -12.3489 -12.1141 -12.0455 -11.9073 -11.6823 -11.6590 -11.5536 -10.9431
   -10.8909 -10.6242 -10.5241  -9.8612  -9.6942  -9.3371  -9.1118  -8.6719
    -8.6239  -8.5540  -8.3900  -8.3702  -8.1624  -8.1211  -8.0643  -8.0506
    -7.6896  -7.6243  -7.4954  -7.4750  -7.3569  -7.1719  -7.0688  -6.8624
    -6.6231  -6.3908  -6.1818  -6.1589  -5.9712  -5.9302  -5.7847  -5.7481
    -5.4525  -5.3971  -5.2116  -5.0436  -4.4478  -4.3499  -4.0898  -3.7692
    -3.3457  -2.5972  -2.5732  -2.2109  -1.8125  -1.7575  -1.4322  -1.4088
    -1.2057  -1.1693  -1.1198  -0.4553   0.5131   0.9442   1.0083   1.1248
     1.2428   1.2970   1.4298   1.8453   1.9202   2.1265

          k = 0.1667-0.0962 0.0000 ( 59226 PWs)   bands (ev):

   -72.9964 -72.9367 -44.7340 -44.3695 -44.3422 -44.3404 -44.3240 -44.2966
   -21.3143 -20.5365 -20.3480 -20.3382 -19.9921 -19.9789 -19.8068 -18.7330
   -18.7207 -18.3767 -18.3700 -18.3551 -18.2690 -18.2634 -18.0800 -18.0710
   -12.5074 -12.5040 -12.4090 -11.5834 -11.5758 -11.4265 -11.4224 -10.9277
   -10.9240  -9.9306  -9.9267  -9.6766  -9.3756  -9.3735  -9.2314  -9.2288
    -9.0432  -9.0412  -8.9263  -8.3251  -8.3220  -7.9024  -7.9005  -7.8837
    -7.8460  -7.7714  -7.6137  -7.5794  -7.1431  -7.0860  -6.9602  -6.8901
    -6.8854  -6.8514  -6.5334  -6.5283  -6.2585  -5.3596  -5.3125  -5.1444
    -5.0663  -4.8124  -4.8040  -4.7510  -4.6142  -4.6077  -4.3595  -4.3285
    -3.3484  -2.5976  -2.5717  -2.2177  -1.8157  -1.7573  -1.4299  -1.4074
    -1.2039  -1.1702  -1.1173  -0.4454   0.6972   0.8937   0.9579   1.2194
     1.2583   1.3663   1.5893   1.6111   1.7566   1.9966

          k =-0.5000-0.8660 0.0000 ( 59292 PWs)   bands (ev):

   -72.9964 -72.9367 -44.7340 -44.3695 -44.3422 -44.3404 -44.3241 -44.2965
   -21.0550 -21.0432 -20.4728 -20.4625 -19.4304 -19.4212 -19.4117 -19.4106
   -18.9962 -18.9871 -18.3289 -18.3249 -18.3158 -18.3105 -17.7970 -17.7874
   -12.0738 -12.0699 -12.0614 -12.0589 -11.8817 -11.8714 -11.3328 -11.3255
   -10.2373 -10.2312 -10.1368 -10.1346 -10.1293 -10.1266  -8.6051  -8.5516
    -8.5501  -8.5427  -8.5405  -8.5320  -7.8670  -7.8643  -7.8596  -7.8571
    -7.8253  -7.8212  -7.7869  -7.7495  -7.4929  -7.4856  -6.6146  -6.6065
    -6.3595  -6.3434  -6.3006  -6.2944  -6.1924  -6.1872  -5.7164  -5.6941
    -5.5486  -5.5408  -4.7392  -4.7343  -4.6874  -4.6824  -3.8947  -3.8651
    -3.3406  -2.5967  -2.5734  -2.2116  -1.8140  -1.7575  -1.4298  -1.4089
    -1.2130  -1.1725  -1.1218  -0.5580   0.6572   1.0256   1.0415   1.1323
     1.4220   1.5854   1.5997   1.6091   1.7791   1.8873

          k =-0.1667 0.2887 0.0000 ( 59267 PWs)   bands (ev):

   -72.9964 -72.9367 -44.7340 -44.3695 -44.3422 -44.3404 -44.3241 -44.2965
   -21.2478 -20.6646 -20.6536 -20.1041 -20.0987 -19.5911 -19.5812 -19.1005
   -18.7013 -18.6896 -18.4573 -18.4528 -18.1962 -18.0872 -18.0782 -17.8507
   -12.4848 -12.2067 -12.2033 -11.8224 -11.8181 -11.6596 -11.1950 -11.1876
   -10.3927 -10.3686 -10.1206 -10.1140  -9.5911  -9.5878  -8.8406  -8.8258
    -8.8236  -8.7692  -8.7609  -8.5975  -8.1981  -8.0643  -8.0054  -7.8302
    -7.8280  -7.4409  -7.4368  -7.2782  -7.2650  -7.2102  -7.2064  -6.9611
    -6.9569  -6.5780  -6.5282  -6.1552  -6.1535  -5.8739  -5.4197  -5.3021
    -5.2729  -5.2012  -4.9101  -4.9053  -4.5110  -4.3584  -4.3402  -3.9814
    -3.3468  -2.5974  -2.5724  -2.2143  -1.8136  -1.7574  -1.4309  -1.4081
    -1.2049  -1.1697  -1.1185  -0.4505   0.5949   0.9376   0.9851   1.2194
     1.3235   1.4916   1.5307   1.5771   1.6176   1.8030

          k = 0.3333 0.0000 0.0000 ( 59267 PWs)   bands (ev):

   -72.9964 -72.9367 -44.7340 -44.3695 -44.3422 -44.3404 -44.3240 -44.2966
   -21.2474 -20.6861 -20.6320 -20.1064 -20.0948 -19.6137 -19.5605 -19.1026
   -18.7146 -18.6714 -18.4620 -18.4499 -18.1917 -18.1085 -18.0635 -17.8499
   -12.4846 -12.2094 -12.2004 -11.8301 -11.8126 -11.6573 -11.2106 -11.1728
   -10.3920 -10.3683 -10.1312 -10.1036  -9.5962  -9.5816  -8.8474  -8.8242
    -8.8160  -8.7887  -8.7428  -8.5984  -8.1998  -8.1030  -7.9663  -7.8293
    -7.8269  -7.4456  -7.4312  -7.2954  -7.2428  -7.2187  -7.1978  -6.9650
    -6.9545  -6.6181  -6.4945  -6.1576  -6.1503  -5.8806  -5.4195  -5.3136
    -5.2505  -5.2014  -4.9220  -4.8959  -4.5032  -4.3822  -4.3281  -3.9799
    -3.3438  -2.5967  -2.5725  -2.2148  -1.8156  -1.7573  -1.4293  -1.4082
    -1.2093  -1.1719  -1.1197  -0.5223   0.6987   0.9625   1.0977   1.2266
     1.3419   1.5094   1.5380   1.5690   1.5953   1.8885

          k =-0.1667-0.4811 0.0000 ( 59291 PWs)   bands (ev):

   -72.9964 -72.9367 -44.7340 -44.3695 -44.3422 -44.3404 -44.3240 -44.2966
   -21.1174 -20.9132 -20.7236 -20.1617 -19.8053 -19.4675 -19.3183 -19.1754
   -19.0156 -18.7794 -18.6424 -18.5455 -18.1502 -18.0906 -17.9229 -17.7250
   -12.3490 -12.1141 -12.0455 -11.9073 -11.6823 -11.6590 -11.5536 -10.9431
   -10.8909 -10.6242 -10.5240  -9.8612  -9.6942  -9.3372  -9.1119  -8.6719
    -8.6238  -8.5540  -8.3900  -8.3702  -8.1623  -8.1211  -8.0644  -8.0506
    -7.6896  -7.6244  -7.4953  -7.4750  -7.3569  -7.1719  -7.0687  -6.8624
    -6.6231  -6.3908  -6.1819  -6.1589  -5.9712  -5.9302  -5.7847  -5.7481
    -5.4526  -5.3971  -5.2116  -5.0436  -4.4478  -4.3499  -4.0898  -3.7692
    -3.3457  -2.5972  -2.5732  -2.2109  -1.8125  -1.7575  -1.4322  -1.4088
    -1.2057  -1.1693  -1.1198  -0.4553   0.5131   0.9442   1.0083   1.1248
     1.2428   1.2969   1.4298   1.8453   1.9202   2.1267

          k = 0.5000-0.0962 0.0000 ( 59291 PWs)   bands (ev):

   -72.9964 -72.9367 -44.7340 -44.3695 -44.3422 -44.3404 -44.3241 -44.2966
   -21.1148 -20.9203 -20.7190 -20.1599 -19.8054 -19.4697 -19.3235 -19.1707
   -19.0166 -18.7807 -18.6322 -18.5512 -18.1386 -18.1063 -17.9203 -17.7246
   -12.3480 -12.1146 -12.0436 -11.9111 -11.6932 -11.6454 -11.5558 -10.9432
   -10.8891 -10.6227 -10.5264  -9.8589  -9.6948  -9.3381  -9.1113  -8.6629
    -8.6244  -8.5520  -8.3991  -8.3919  -8.1605  -8.1041  -8.0768  -8.0395
    -7.6857  -7.6248  -7.4945  -7.4761  -7.3512  -7.1733  -7.0696  -6.8614
    -6.6235  -6.3999  -6.1957  -6.1584  -5.9581  -5.9295  -5.7840  -5.7506
    -5.4535  -5.3987  -5.1898  -5.0560  -4.4290  -4.3734  -4.0879  -3.7686
    -3.3407  -2.5967  -2.5735  -2.2116  -1.8145  -1.7575  -1.4299  -1.4089
    -1.2129  -1.1725  -1.1218  -0.5576   0.6484   1.0144   1.0264   1.1667
     1.2847   1.3269   1.6481   1.7816   1.9398   1.9547

          k =-0.3333-0.3849 0.0000 ( 59291 PWs)   bands (ev):

   -72.9964 -72.9367 -44.7340 -44.3695 -44.3422 -44.3404 -44.3241 -44.2966
   -21.1158 -20.9178 -20.7208 -20.1597 -19.8074 -19.4677 -19.3186 -19.1743
   -19.0193 -18.7790 -18.6337 -18.5504 -18.1410 -18.1033 -17.9205 -17.7248
   -12.3485 -12.1128 -12.0457 -11.9103 -11.6829 -11.6571 -11.5548 -10.9431
   -10.8885 -10.6220 -10.5273  -9.8597  -9.6949  -9.3374  -9.1122  -8.6658
    -8.6232  -8.5539  -8.3915  -8.3868  -8.1619  -8.1108  -8.0648  -8.0526
    -7.6859  -7.6235  -7.5008  -7.4703  -7.3496  -7.1734  -7.0701  -6.8694
    -6.6216  -6.3924  -6.1809  -6.1605  -5.9694  -5.9284  -5.7841  -5.7589
    -5.4534  -5.3934  -5.1913  -5.0562  -4.4312  -4.3711  -4.0873  -3.7688
    -3.3422  -2.5970  -2.5734  -2.2114  -1.8135  -1.7575  -1.4307  -1.4089
    -1.2105  -1.1714  -1.1211  -0.5265   0.6023   0.9978   1.0305   1.1363
     1.2363   1.3833   1.5404   1.8367   1.9164   1.9695

          k = 0.5000 0.0962 0.0000 ( 59291 PWs)   bands (ev):

   -72.9964 -72.9367 -44.7340 -44.3695 -44.3422 -44.3404 -44.3241 -44.2966
   -21.1148 -20.9203 -20.7190 -20.1599 -19.8053 -19.4698 -19.3235 -19.1707
   -19.0166 -18.7807 -18.6322 -18.5512 -18.1386 -18.1063 -17.9203 -17.7246
   -12.3480 -12.1146 -12.0436 -11.9112 -11.6932 -11.6454 -11.5558 -10.9432
   -10.8890 -10.6227 -10.5264  -9.8589  -9.6949  -9.3381  -9.1113  -8.6629
    -8.6244  -8.5520  -8.3991  -8.3919  -8.1605  -8.1041  -8.0767  -8.0395
    -7.6857  -7.6248  -7.4946  -7.4761  -7.3511  -7.1734  -7.0695  -6.8614
    -6.6234  -6.3999  -6.1957  -6.1583  -5.9581  -5.9294  -5.7841  -5.7506
    -5.4536  -5.3987  -5.1898  -5.0560  -4.4290  -4.3734  -4.0879  -3.7686
    -3.3407  -2.5967  -2.5735  -2.2116  -1.8145  -1.7575  -1.4299  -1.4089
    -1.2129  -1.1725  -1.1218  -0.5576   0.6484   1.0144   1.0264   1.1667
     1.2847   1.3269   1.6481   1.7818   1.9398   1.9547

          k =-0.3333 0.3849 0.0000 ( 59291 PWs)   bands (ev):

   -72.9964 -72.9367 -44.7340 -44.3695 -44.3422 -44.3404 -44.3241 -44.2966
   -21.1158 -20.9178 -20.7208 -20.1597 -19.8074 -19.4677 -19.3186 -19.1744
   -19.0193 -18.7790 -18.6337 -18.5504 -18.1410 -18.1033 -17.9205 -17.7248
   -12.3485 -12.1128 -12.0457 -11.9103 -11.6829 -11.6572 -11.5547 -10.9432
   -10.8885 -10.6220 -10.5273  -9.8598  -9.6949  -9.3374  -9.1122  -8.6658
    -8.6232  -8.5539  -8.3915  -8.3868  -8.1620  -8.1108  -8.0647  -8.0527
    -7.6859  -7.6235  -7.5008  -7.4703  -7.3496  -7.1733  -7.0702  -6.8694
    -6.6217  -6.3924  -6.1809  -6.1605  -5.9694  -5.9285  -5.7840  -5.7589
    -5.4533  -5.3934  -5.1913  -5.0562  -4.4312  -4.3711  -4.0873  -3.7688
    -3.3422  -2.5970  -2.5734  -2.2114  -1.8135  -1.7575  -1.4307  -1.4089
    -1.2105  -1.1714  -1.1211  -0.5265   0.6023   0.9978   1.0305   1.1362
     1.2363   1.3833   1.5405   1.8367   1.9165   1.9700

          k =-0.1667-0.0962 0.0000 ( 59226 PWs)   bands (ev):

   -72.9964 -72.9367 -44.7340 -44.3695 -44.3422 -44.3404 -44.3240 -44.2966
   -21.3143 -20.5365 -20.3480 -20.3382 -19.9921 -19.9789 -19.8068 -18.7330
   -18.7207 -18.3767 -18.3700 -18.3551 -18.2690 -18.2634 -18.0800 -18.0710
   -12.5074 -12.5040 -12.4090 -11.5834 -11.5758 -11.4265 -11.4224 -10.9277
   -10.9240  -9.9306  -9.9267  -9.6766  -9.3755  -9.3735  -9.2314  -9.2288
    -9.0432  -9.0412  -8.9263  -8.3252  -8.3220  -7.9024  -7.9005  -7.8837
    -7.8459  -7.7714  -7.6137  -7.5794  -7.1431  -7.0860  -6.9603  -6.8901
    -6.8853  -6.8514  -6.5333  -6.5283  -6.2586  -5.3596  -5.3125  -5.1443
    -5.0664  -4.8123  -4.8040  -4.7511  -4.6142  -4.6077  -4.3595  -4.3285
    -3.3484  -2.5976  -2.5717  -2.2177  -1.8157  -1.7573  -1.4299  -1.4074
    -1.2039  -1.1702  -1.1173  -0.4454   0.6972   0.8937   0.9579   1.2194
     1.2583   1.3664   1.5893   1.6111   1.7567   1.9969

          k =-0.0000-0.1925 0.0000 ( 59226 PWs)   bands (ev):

   -72.9964 -72.9367 -44.7339 -44.3695 -44.3422 -44.3404 -44.3241 -44.2965
   -21.3144 -20.5319 -20.3518 -20.3428 -19.9858 -19.9782 -19.8101 -18.7294
   -18.7210 -18.3941 -18.3717 -18.3550 -18.2562 -18.2559 -18.0813 -18.0743
   -12.5101 -12.5012 -12.4090 -11.5833 -11.5776 -11.4274 -11.4183 -10.9280
   -10.9255  -9.9295  -9.9276  -9.6771  -9.3764  -9.3716  -9.2309  -9.2297
    -9.0427  -9.0420  -8.9268  -8.3243  -8.3219  -7.9015  -7.8993  -7.8694
    -7.8453  -7.7731  -7.6219  -7.6011  -7.1064  -7.0992  -6.9590  -6.8901
    -6.8868  -6.8607  -6.5323  -6.5285  -6.2592  -5.3380  -5.3269  -5.1444
    -5.0661  -4.8374  -4.8099  -4.7536  -4.5969  -4.5910  -4.3506  -4.3449
    -3.3498  -2.5980  -2.5717  -2.2175  -1.8147  -1.7573  -1.4308  -1.4074
    -1.2018  -1.1691  -1.1167  -0.4029   0.6313   0.8509   0.9391   1.1911
     1.2646   1.3829   1.5934   1.6251   1.6975   2.0184

          k = 0.5000-0.8660 0.0000 ( 59292 PWs)   bands (ev):

   -72.9964 -72.9367 -44.7340 -44.3695 -44.3422 -44.3404 -44.3241 -44.2965
   -21.0550 -21.0432 -20.4728 -20.4625 -19.4303 -19.4212 -19.4117 -19.4106
   -18.9962 -18.9871 -18.3289 -18.3249 -18.3158 -18.3106 -17.7970 -17.7874
   -12.0737 -12.0699 -12.0615 -12.0590 -11.8816 -11.8714 -11.3327 -11.3255
   -10.2373 -10.2312 -10.1368 -10.1346 -10.1293 -10.1266  -8.6051  -8.5516
    -8.5500  -8.5428  -8.5405  -8.5320  -7.8670  -7.8643  -7.8596  -7.8571
    -7.8254  -7.8212  -7.7869  -7.7495  -7.4929  -7.4856  -6.6146  -6.6064
    -6.3595  -6.3434  -6.3006  -6.2944  -6.1923  -6.1872  -5.7164  -5.6941
    -5.5487  -5.5409  -4.7392  -4.7343  -4.6875  -4.6824  -3.8947  -3.8652
    -3.3406  -2.5967  -2.5734  -2.2116  -1.8140  -1.7575  -1.4298  -1.4089
    -1.2130  -1.1725  -1.1218  -0.5580   0.6572   1.0256   1.0415   1.1323
     1.4219   1.5854   1.5997   1.6092   1.7790   1.8873

          k =-1.0000 0.0000 0.0000 ( 59292 PWs)   bands (ev):

   -72.9964 -72.9367 -44.7340 -44.3695 -44.3422 -44.3404 -44.3240 -44.2965
   -21.0750 -21.0205 -20.4743 -20.4656 -19.4244 -19.4217 -19.4178 -19.4044
   -19.0131 -18.9713 -18.3713 -18.3359 -18.2926 -18.2815 -17.7965 -17.7893
   -12.1025 -12.0817 -12.0403 -12.0356 -11.8803 -11.8736 -11.3509 -11.3097
   -10.2421 -10.2399 -10.1320 -10.1308 -10.1265 -10.1258  -8.6360  -8.5750
    -8.5584  -8.5289  -8.5180  -8.4921  -7.8739  -7.8692  -7.8623  -7.8613
    -7.8151  -7.8150  -7.7830  -7.7682  -7.5141  -7.4665  -6.6117  -6.6067
    -6.3474  -6.3429  -6.3024  -6.2887  -6.2088  -6.1731  -5.7372  -5.6780
    -5.5669  -5.5229  -4.7957  -4.7568  -4.6501  -4.6451  -3.8839  -3.8767
    -3.3474  -2.5971  -2.5729  -2.2107  -1.8120  -1.7575  -1.4327  -1.4088
    -1.2033  -1.1682  -1.1190  -0.4144   0.4764   0.9062   1.0010   1.1246
     1.1910   1.5600   1.5953   1.6001   1.6412   1.9164

 ------ SPIN DOWN ----------


          k = 0.1667 0.2887 0.0000 ( 59267 PWs)   bands (ev):

   -68.8466 -68.7815 -40.7554 -40.3221 -40.2188 -40.1786 -40.1681 -40.1277
   -21.2438 -20.6593 -20.6512 -20.1000 -20.0950 -19.5857 -19.5788 -19.0964
   -18.6948 -18.6870 -18.4531 -18.4487 -18.1910 -18.0824 -18.0757 -17.8465
   -12.4826 -12.2041 -12.2010 -11.8197 -11.8163 -11.6574 -11.1919 -11.1857
   -10.3899 -10.3663 -10.1168 -10.1122  -9.5883  -9.5857  -8.8253  -8.8217
    -8.8161  -8.7658  -8.7594  -8.5951  -8.1957  -8.0374  -7.9973  -7.8276
    -7.8257  -7.4368  -7.4343  -7.2597  -7.2494  -7.2071  -7.2045  -6.9585
    -6.9545  -6.5543  -6.5213  -6.1523  -6.1511  -5.8565  -5.4164  -5.2770
    -5.2601  -5.1985  -4.8957  -4.8909  -4.4913  -4.3429  -4.3306  -3.9665
    -1.5444   0.4724   0.5021   0.6113   0.6752   1.1572   1.2212   1.2941
     1.3557   1.4703   1.5322   1.5798   1.6435   1.7106   1.7988   1.9094
     2.0779   2.1170   2.1915   2.2467   2.3576   2.4106

          k = 0.1667-0.4811 0.0000 ( 59291 PWs)   bands (ev):

   -68.8466 -68.7815 -40.7554 -40.3221 -40.2188 -40.1786 -40.1681 -40.1277
   -21.1131 -20.9098 -20.7197 -20.1577 -19.8014 -19.4635 -19.3142 -19.1713
   -19.0114 -18.7756 -18.6369 -18.5422 -18.1440 -18.0883 -17.9187 -17.7207
   -12.3467 -12.1118 -12.0432 -11.9051 -11.6798 -11.6567 -11.5513 -10.9404
   -10.8882 -10.6217 -10.5216  -9.8582  -9.6918  -9.3342  -9.1093  -8.6464
    -8.6212  -8.5510  -8.3877  -8.3571  -8.1599  -8.1047  -8.0616  -8.0485
    -7.6868  -7.6218  -7.4926  -7.4729  -7.3388  -7.1689  -7.0663  -6.8456
    -6.6198  -6.3744  -6.1635  -6.1563  -5.9565  -5.9270  -5.7819  -5.7314
    -5.4499  -5.3825  -5.1876  -5.0336  -4.4246  -4.3427  -4.0756  -3.7546
    -1.5367   0.4725   0.4881   0.6003   0.6959   1.0604   1.1487   1.2097
     1.2640   1.3511   1.6168   1.6546   1.7080   1.8169   1.8871   2.1078
     2.1517   2.1763   2.2154   2.2548   2.3320   2.4012

          k = 0.1667-0.0962 0.0000 ( 59226 PWs)   bands (ev):

   -68.8466 -68.7815 -40.7554 -40.3221 -40.2188 -40.1786 -40.1681 -40.1277
   -21.3103 -20.5321 -20.3442 -20.3349 -19.9871 -19.9756 -19.8035 -18.7276
   -18.7169 -18.3714 -18.3656 -18.3514 -18.2646 -18.2594 -18.0759 -18.0678
   -12.5049 -12.5018 -12.4067 -11.5809 -11.5739 -11.4238 -11.4200 -10.9250
   -10.9217  -9.9279  -9.9245  -9.6738  -9.3731  -9.3710  -9.2282  -9.2260
    -9.0409  -9.0388  -8.9063  -8.3219  -8.3190  -7.8997  -7.8978  -7.8603
    -7.8420  -7.7690  -7.5961  -7.5693  -7.1159  -7.0761  -6.9575  -6.8874
    -6.8832  -6.8409  -6.5304  -6.5260  -6.2560  -5.3328  -5.3009  -5.1414
    -5.0635  -4.7915  -4.7858  -4.7376  -4.6001  -4.5949  -4.3414  -4.3196
    -1.5521   0.4719   0.5168   0.6153   0.6612   1.0785   1.1814   1.2618
     1.4222   1.5391   1.5938   1.6735   1.7273   1.7329   1.8455   1.9146
     2.0034   2.0498   2.1045   2.2674   2.3128   2.3759

          k =-0.5000-0.8660 0.0000 ( 59292 PWs)   bands (ev):

   -68.8466 -68.7815 -40.7554 -40.3221 -40.2188 -40.1786 -40.1681 -40.1277
   -21.0494 -21.0408 -20.4687 -20.4592 -19.4246 -19.4167 -19.4087 -19.4070
   -18.9906 -18.9849 -18.3226 -18.3177 -18.3134 -18.3093 -17.7922 -17.7838
   -12.0700 -12.0665 -12.0601 -12.0578 -11.8792 -11.8697 -11.3298 -11.3237
   -10.2343 -10.2292 -10.1335 -10.1318 -10.1267 -10.1244  -8.5726  -8.5474
    -8.5464  -8.5410  -8.5394  -8.5246  -7.8640  -7.8613  -7.8575  -7.8548
    -7.8216  -7.8175  -7.7682  -7.7393  -7.4895  -7.4842  -6.6112  -6.6044
    -6.3312  -6.3186  -6.2909  -6.2845  -6.1888  -6.1850  -5.6976  -5.6844
    -5.5446  -5.5394  -4.7135  -4.7082  -4.6809  -4.6779  -3.8755  -3.8548
    -1.5206   0.2713   0.4800   0.6169   0.6818   1.0858   1.1804   1.3247
     1.4951   1.5325   1.5918   1.6255   1.7255   1.7382   1.8855   1.9248
     1.9695   2.1509   2.2130   2.2835   2.3211   2.4173

          k =-0.1667 0.2887 0.0000 ( 59267 PWs)   bands (ev):

   -68.8466 -68.7815 -40.7554 -40.3221 -40.2188 -40.1786 -40.1681 -40.1277
   -21.2438 -20.6593 -20.6512 -20.1000 -20.0950 -19.5857 -19.5788 -19.0964
   -18.6948 -18.6870 -18.4531 -18.4487 -18.1910 -18.0824 -18.0758 -17.8465
   -12.4826 -12.2041 -12.2010 -11.8197 -11.8163 -11.6574 -11.1918 -11.1857
   -10.3899 -10.3662 -10.1168 -10.1123  -9.5883  -9.5857  -8.8253  -8.8216
    -8.8160  -8.7658  -8.7594  -8.5951  -8.1958  -8.0374  -7.9973  -7.8276
    -7.8256  -7.4368  -7.4343  -7.2597  -7.2494  -7.2071  -7.2045  -6.9586
    -6.9545  -6.5543  -6.5213  -6.1523  -6.1511  -5.8565  -5.4165  -5.2770
    -5.2601  -5.1984  -4.8957  -4.8908  -4.4913  -4.3429  -4.3306  -3.9665
    -1.5444   0.4724   0.5021   0.6113   0.6752   1.1572   1.2212   1.2941
     1.3557   1.4703   1.5322   1.5798   1.6435   1.7106   1.7988   1.9094
     2.0779   2.1170   2.1914   2.2468   2.3579   2.4128

          k = 0.3333 0.0000 0.0000 ( 59267 PWs)   bands (ev):

   -68.8466 -68.7815 -40.7554 -40.3221 -40.2188 -40.1786 -40.1681 -40.1277
   -21.2435 -20.6804 -20.6300 -20.1025 -20.0911 -19.6077 -19.5585 -19.0982
   -18.7080 -18.6696 -18.4575 -18.4459 -18.1872 -18.1022 -18.0615 -17.8458
   -12.4822 -12.2073 -12.1977 -11.8277 -11.8105 -11.6554 -11.2070 -11.1711
   -10.3894 -10.3658 -10.1275 -10.1018  -9.5933  -9.5797  -8.8321  -8.8205
    -8.8083  -8.7851  -8.7415  -8.5959  -8.1973  -8.0724  -7.9621  -7.8267
    -7.8248  -7.4418  -7.4288  -7.2728  -7.2326  -7.2154  -7.1961  -6.9623
    -6.9521  -6.5900  -6.4901  -6.1546  -6.1480  -5.8611  -5.4164  -5.2909
    -5.2389  -5.1987  -4.9043  -4.8839  -4.4856  -4.3649  -4.3169  -3.9654
    -1.5341   0.3422   0.4950   0.6146   0.6740   1.0546   1.2693   1.3988
     1.4747   1.4964   1.5415   1.6270   1.7066   1.7420   1.7425   1.9749
     2.0282   2.1339   2.1673   2.2707   2.3677   2.4051

          k =-0.1667-0.4811 0.0000 ( 59291 PWs)   bands (ev):

   -68.8466 -68.7815 -40.7554 -40.3221 -40.2188 -40.1786 -40.1681 -40.1277
   -21.1131 -20.9098 -20.7197 -20.1577 -19.8014 -19.4635 -19.3142 -19.1713
   -19.0114 -18.7756 -18.6369 -18.5421 -18.1440 -18.0883 -17.9187 -17.7207
   -12.3467 -12.1117 -12.0432 -11.9051 -11.6798 -11.6567 -11.5513 -10.9404
   -10.8883 -10.6217 -10.5216  -9.8582  -9.6918  -9.3343  -9.1094  -8.6464
    -8.6212  -8.5510  -8.3877  -8.3571  -8.1599  -8.1047  -8.0616  -8.0486
    -7.6868  -7.6219  -7.4926  -7.4729  -7.3388  -7.1689  -7.0663  -6.8456
    -6.6198  -6.3744  -6.1636  -6.1563  -5.9565  -5.9269  -5.7819  -5.7314
    -5.4499  -5.3825  -5.1876  -5.0336  -4.4246  -4.3427  -4.0756  -3.7546
    -1.5367   0.4725   0.4881   0.6003   0.6959   1.0604   1.1487   1.2097
     1.2640   1.3511   1.6168   1.6545   1.7080   1.8169   1.8871   2.1078
     2.1518   2.1763   2.2154   2.2548   2.3317   2.4005

          k = 0.5000-0.0962 0.0000 ( 59291 PWs)   bands (ev):

   -68.8466 -68.7815 -40.7554 -40.3221 -40.2188 -40.1786 -40.1681 -40.1278
   -21.1108 -20.9161 -20.7157 -20.1561 -19.8014 -19.4654 -19.3188 -19.1673
   -19.0122 -18.7766 -18.6282 -18.5471 -18.1337 -18.1020 -17.9166 -17.7204
   -12.3456 -12.1123 -12.0415 -11.9087 -11.6904 -11.6439 -11.5532 -10.9406
   -10.8864 -10.6202 -10.5239  -9.8562  -9.6924  -9.3351  -9.1089  -8.6400
    -8.6216  -8.5492  -8.3918  -8.3759  -8.1582  -8.0925  -8.0731  -8.0382
    -7.6833  -7.6223  -7.4918  -7.4739  -7.3347  -7.1701  -7.0670  -6.8451
    -6.6202  -6.3801  -6.1741  -6.1558  -5.9471  -5.9264  -5.7812  -5.7331
    -5.4508  -5.3837  -5.1721  -5.0426  -4.4092  -4.3618  -4.0737  -3.7541
    -1.5207   0.2730   0.4795   0.6125   0.6860   1.0743   1.1301   1.2292
     1.3485   1.5113   1.6596   1.7003   1.7376   1.8564   1.9804   2.0270
     2.1021   2.1717   2.2175   2.2532   2.3363   2.3987

          k =-0.3333-0.3849 0.0000 ( 59291 PWs)   bands (ev):

   -68.8466 -68.7815 -40.7554 -40.3221 -40.2188 -40.1786 -40.1681 -40.1278
   -21.1116 -20.9139 -20.7172 -20.1559 -19.8032 -19.4636 -19.3145 -19.1704
   -19.0146 -18.7751 -18.6294 -18.5465 -18.1358 -18.0994 -17.9167 -17.7205
   -12.3462 -12.1104 -12.0436 -11.9077 -11.6805 -11.6550 -11.5523 -10.9406
   -10.8860 -10.6196 -10.5246  -9.8568  -9.6925  -9.3346  -9.1097  -8.6419
    -8.6206  -8.5508  -8.3889  -8.3692  -8.1596  -8.0973  -8.0618  -8.0505
    -7.6835  -7.6210  -7.4975  -7.4687  -7.3337  -7.1702  -7.0675  -6.8505
    -6.6185  -6.3753  -6.1637  -6.1573  -5.9548  -5.9255  -5.7814  -5.7390
    -5.4507  -5.3801  -5.1733  -5.0426  -4.4111  -4.3597  -4.0734  -3.7543
    -1.5261   0.3322   0.4742   0.6108   0.6864   1.0679   1.2008   1.2449
     1.2685   1.4058   1.6210   1.7009   1.7659   1.9441   1.9845   2.0280
     2.0767   2.1104   2.1889   2.2326   2.3431   2.4018

          k = 0.5000 0.0962 0.0000 ( 59291 PWs)   bands (ev):

   -68.8466 -68.7815 -40.7554 -40.3221 -40.2188 -40.1786 -40.1681 -40.1278
   -21.1108 -20.9161 -20.7157 -20.1561 -19.8014 -19.4654 -19.3188 -19.1673
   -19.0122 -18.7766 -18.6282 -18.5472 -18.1337 -18.1020 -17.9166 -17.7204
   -12.3456 -12.1123 -12.0415 -11.9087 -11.6904 -11.6439 -11.5532 -10.9406
   -10.8864 -10.6202 -10.5239  -9.8562  -9.6924  -9.3351  -9.1088  -8.6400
    -8.6216  -8.5493  -8.3918  -8.3759  -8.1583  -8.0925  -8.0730  -8.0382
    -7.6833  -7.6222  -7.4919  -7.4740  -7.3346  -7.1702  -7.0669  -6.8451
    -6.6201  -6.3801  -6.1741  -6.1557  -5.9471  -5.9263  -5.7813  -5.7331
    -5.4508  -5.3837  -5.1721  -5.0426  -4.4092  -4.3617  -4.0737  -3.7541
    -1.5207   0.2730   0.4795   0.6125   0.6860   1.0744   1.1301   1.2292
     1.3485   1.5113   1.6596   1.7003   1.7376   1.8564   1.9804   2.0270
     2.1021   2.1717   2.2176   2.2534   2.3362   2.3985

          k =-0.3333 0.3849 0.0000 ( 59291 PWs)   bands (ev):

   -68.8466 -68.7815 -40.7554 -40.3221 -40.2188 -40.1786 -40.1681 -40.1278
   -21.1116 -20.9139 -20.7172 -20.1559 -19.8032 -19.4636 -19.3145 -19.1704
   -19.0146 -18.7752 -18.6294 -18.5465 -18.1358 -18.0994 -17.9167 -17.7205
   -12.3462 -12.1104 -12.0436 -11.9077 -11.6806 -11.6550 -11.5523 -10.9406
   -10.8860 -10.6196 -10.5246  -9.8568  -9.6924  -9.3346  -9.1097  -8.6419
    -8.6206  -8.5508  -8.3890  -8.3692  -8.1596  -8.0973  -8.0618  -8.0506
    -7.6835  -7.6210  -7.4975  -7.4687  -7.3337  -7.1701  -7.0675  -6.8505
    -6.6185  -6.3753  -6.1637  -6.1574  -5.9548  -5.9256  -5.7813  -5.7390
    -5.4506  -5.3801  -5.1733  -5.0426  -4.4111  -4.3597  -4.0734  -3.7543
    -1.5261   0.3322   0.4742   0.6108   0.6864   1.0679   1.2008   1.2449
     1.2685   1.4058   1.6210   1.7009   1.7659   1.9441   1.9844   2.0279
     2.0767   2.1105   2.1890   2.2324   2.3431   2.4016

          k =-0.1667-0.0962 0.0000 ( 59226 PWs)   bands (ev):

   -68.8466 -68.7815 -40.7554 -40.3221 -40.2188 -40.1786 -40.1681 -40.1277
   -21.3103 -20.5321 -20.3442 -20.3349 -19.9871 -19.9756 -19.8035 -18.7276
   -18.7169 -18.3714 -18.3656 -18.3514 -18.2646 -18.2594 -18.0759 -18.0678
   -12.5049 -12.5018 -12.4067 -11.5809 -11.5739 -11.4239 -11.4200 -10.9250
   -10.9217  -9.9279  -9.9246  -9.6737  -9.3731  -9.3709  -9.2282  -9.2261
    -9.0409  -9.0388  -8.9063  -8.3219  -8.3190  -7.8997  -7.8978  -7.8603
    -7.8419  -7.7691  -7.5960  -7.5693  -7.1159  -7.0761  -6.9576  -6.8873
    -6.8832  -6.8409  -6.5304  -6.5260  -6.2560  -5.3328  -5.3009  -5.1413
    -5.0636  -4.7915  -4.7858  -4.7376  -4.6001  -4.5949  -4.3414  -4.3196
    -1.5521   0.4719   0.5168   0.6153   0.6612   1.0785   1.1814   1.2618
     1.4223   1.5392   1.5938   1.6735   1.7273   1.7329   1.8455   1.9146
     2.0034   2.0498   2.1046   2.2674   2.3129   2.3762

          k =-0.0000-0.1925 0.0000 ( 59226 PWs)   bands (ev):

   -68.8466 -68.7815 -40.7554 -40.3221 -40.2188 -40.1786 -40.1681 -40.1277
   -21.3104 -20.5280 -20.3474 -20.3391 -19.9820 -19.9746 -19.8063 -18.7247
   -18.7168 -18.3870 -18.3668 -18.3508 -18.2539 -18.2528 -18.0773 -18.0703
   -12.5082 -12.4987 -12.4066 -11.5808 -11.5754 -11.4253 -11.4159 -10.9253
   -10.9229  -9.9273  -9.9251  -9.6741  -9.3734  -9.3696  -9.2280  -9.2268
    -9.0402  -9.0397  -8.9067  -8.3213  -8.3189  -7.8989  -7.8971  -7.8521
    -7.8390  -7.7705  -7.6015  -7.5852  -7.0922  -7.0829  -6.9564  -6.8875
    -6.8843  -6.8479  -6.5297  -6.5260  -6.2565  -5.3200  -5.3085  -5.1415
    -5.0633  -4.8105  -4.7896  -4.7388  -4.5885  -4.5822  -4.3376  -4.3287
    -1.5570   0.4735   0.6071   0.6269   0.6596   1.1387   1.1583   1.1871
     1.3627   1.5148   1.5554   1.5857   1.6901   1.7453   1.8334   1.9542
     2.0323   2.0910   2.1131   2.2323   2.3274   2.3914

          k = 0.5000-0.8660 0.0000 ( 59292 PWs)   bands (ev):

   -68.8466 -68.7815 -40.7554 -40.3221 -40.2188 -40.1786 -40.1681 -40.1277
   -21.0494 -21.0408 -20.4687 -20.4592 -19.4246 -19.4167 -19.4087 -19.4070
   -18.9905 -18.9850 -18.3226 -18.3177 -18.3134 -18.3093 -17.7922 -17.7838
   -12.0699 -12.0664 -12.0602 -12.0578 -11.8791 -11.8697 -11.3297 -11.3237
   -10.2343 -10.2292 -10.1335 -10.1318 -10.1267 -10.1244  -8.5726  -8.5473
    -8.5463  -8.5410  -8.5394  -8.5246  -7.8640  -7.8613  -7.8575  -7.8548
    -7.8217  -7.8176  -7.7682  -7.7393  -7.4895  -7.4843  -6.6111  -6.6043
    -6.3312  -6.3186  -6.2910  -6.2845  -6.1886  -6.1850  -5.6976  -5.6845
    -5.5447  -5.5395  -4.7135  -4.7082  -4.6809  -4.6779  -3.8755  -3.8548
    -1.5206   0.2713   0.4800   0.6169   0.6818   1.0858   1.1804   1.3247
     1.4950   1.5325   1.5917   1.6255   1.7255   1.7382   1.8855   1.9249
     1.9696   2.1509   2.2130   2.2835   2.3206   2.4172

          k =-1.0000 0.0000 0.0000 ( 59292 PWs)   bands (ev):

   -68.8466 -68.7815 -40.7554 -40.3221 -40.2188 -40.1786 -40.1681 -40.1277
   -21.0693 -21.0186 -20.4700 -20.4619 -19.4200 -19.4177 -19.4138 -19.4008
   -19.0070 -18.9695 -18.3627 -18.3293 -18.2912 -18.2807 -17.7921 -17.7851
   -12.0994 -12.0780 -12.0388 -12.0347 -11.8780 -11.8715 -11.3472 -11.3081
   -10.2394 -10.2368 -10.1290 -10.1285 -10.1238 -10.1238  -8.6026  -8.5704
    -8.5554  -8.5277  -8.5171  -8.4880  -7.8706  -7.8661  -7.8597  -7.8584
    -7.8125  -7.8114  -7.7658  -7.7524  -7.5102  -7.4653  -6.6091  -6.6041
    -6.3255  -6.3187  -6.2918  -6.2777  -6.2046  -6.1712  -5.7180  -5.6672
    -5.5626  -5.5217  -4.7626  -4.7306  -4.6473  -4.6427  -3.8704  -3.8611
    -1.5419   0.4869   0.5865   0.5957   0.7005   1.0674   1.1143   1.1862
     1.3477   1.5043   1.5869   1.6224   1.6444   1.6530   1.7882   1.8139
     2.0983   2.2314   2.2518   2.2991   2.3023   2.3957

     the Fermi energy is    -0.8232 ev

!    total energy              =   -1133.79661824 Ry

     total all-electron energy =     -6753.472321 Ry
     estimated scf accuracy    <       0.00000003 Ry
     smearing contrib. (-TS)   =      -0.00000000 Ry
     internal energy E=F+TS    =   -1133.79661824 Ry

     The total energy is F=E-TS. E is the sum of the following terms:
     one-electron contribution =   -3976.12637098 Ry
     hartree contribution      =    2016.16397294 Ry
     xc contribution           =    -186.07483138 Ry
     ewald contribution        =    1371.61476083 Ry
     DFT-D3 Dispersion         =      -0.12242828 Ry
     one-center paw contrib.   =    -359.25172137 Ry

     total magnetization       =    10.00 Bohr mag/cell
     absolute magnetization    =    10.01 Bohr mag/cell

     convergence has been achieved in  14 iterations

     Writing output data file ./mytmp/Crdimer0.12-0.0.save/
 
     init_run     :     18.26s CPU     19.35s WALL (       1 calls)
     electrons    :    483.02s CPU    514.09s WALL (       1 calls)

     Called by init_run:
     wfcinit      :     13.50s CPU     14.14s WALL (       1 calls)
     potinit      :      1.53s CPU      1.59s WALL (       1 calls)
     hinit0       :      1.50s CPU      1.64s WALL (       1 calls)

     Called by electrons:
     c_bands      :    385.49s CPU    408.49s WALL (      14 calls)
     sum_band     :     75.37s CPU     80.19s WALL (      14 calls)
     v_of_rho     :      4.59s CPU      4.92s WALL (      15 calls)
     newd         :      9.50s CPU     12.47s WALL (      15 calls)
     PAW_pot      :      7.40s CPU      7.48s WALL (      15 calls)
     mix_rho      :      0.99s CPU      1.01s WALL (      14 calls)

     Called by c_bands:
     init_us_2    :      5.02s CPU      5.04s WALL (     870 calls)
     cegterg      :    373.15s CPU    396.10s WALL (     420 calls)

     Called by *egterg:
     cdiaghg      :     24.31s CPU     38.46s WALL (    2665 calls)
     h_psi        :    241.07s CPU    249.41s WALL (    2695 calls)
     s_psi        :     26.97s CPU     27.00s WALL (    2695 calls)
     g_psi        :      0.70s CPU      0.72s WALL (    2245 calls)

     Called by h_psi:
     h_psi:calbec :     27.78s CPU     28.34s WALL (    2695 calls)
     vloc_psi     :    184.11s CPU    191.78s WALL (    2695 calls)
     add_vuspsi   :     27.12s CPU     27.23s WALL (    2695 calls)

     General routines
     calbec       :     37.10s CPU     37.82s WALL (    3115 calls)
     fft          :      4.32s CPU      5.22s WALL (     369 calls)
     ffts         :      0.11s CPU      0.12s WALL (      58 calls)
     fftw         :    189.91s CPU    197.66s WALL (  248196 calls)
     interpolate  :      0.41s CPU      0.43s WALL (      30 calls)
 
     Parallel routines
     fft_scatt_xy :     30.15s CPU     31.21s WALL (  248623 calls)
     fft_scatt_yz :     75.26s CPU     79.61s WALL (  248623 calls)
 
     PWSCF        :   8m23.30s CPU   8m57.52s WALL

 
   This run was terminated on:  12: 7: 4  31Mar2021            

=------------------------------------------------------------------------------=
   JOB DONE.
=------------------------------------------------------------------------------=
