
     Program PWSCF v.6.7MaX starts on 31Mar2021 at 11:11:48 

     This program is part of the open-source Quantum ESPRESSO suite
     for quantum simulation of materials; please cite
         "P. Giannozzi et al., J. Phys.:Condens. Matter 21 395502 (2009);
         "P. Giannozzi et al., J. Phys.:Condens. Matter 29 465901 (2017);
          URL http://www.quantum-espresso.org", 
     in publications or presentations arising from this work. More details at
     http://www.quantum-espresso.org/quote

     Parallel version (MPI), running on    48 processors

     MPI processes distributed on     1 nodes
     R & G space division:  proc/nbgrp/npool/nimage =      48
     Reading input from Crdimer0.11-0.1.scf.in

     Current dimensions of program PWSCF are:
     Max number of different atomic species (ntypx) = 10
     Max number of k-points (npk) =  40000
     Max angular momentum in pseudopotentials (lmaxx) =  3
     file N.pbe-n-kjpaw_psl.1.0.0.UPF: wavefunction(s)  2S renormalized
     file Cr.pbe-spn-kjpaw_psl.1.0.0.UPF: wavefunction(s)  3S 3P 3D renormalized
     file Cr.pbe-spn-kjpaw_psl.1.0.0.UPF: wavefunction(s)  3S 3P 3D renormalized

     --------------------------------------------
     Parameters for DFT-D3 Dispersion Correction:
     --------------------------------------------
       Reference C6 values for interpolation: 

         atom   Coordination number   C6
         B          0.000           214.36
         B          0.971           150.74
         B          1.944           106.23
         B          2.913            62.89
         B          4.586            56.06
         N          0.000            50.54
         N          0.994            44.25
         N          2.014            39.35
         N          2.990            31.16
         Cr1        0.000          1381.48
         Cr1        1.827           571.38
         Cr1       10.619           306.69
         Cr2        0.000          1381.48
         Cr2        1.827           571.38
         Cr2       10.619           306.69

       Values used:

         atom   Coordination number  R0_AB[au]  C6      C8
         B          3.336            3.039     62.89   2505.98
         B          3.335            3.039     62.89   2506.01
         B          3.366            3.039     62.87   2505.18
         B          3.336            3.039     62.89   2506.00
         B          3.355            3.039     62.88   2505.50
         B          3.336            3.039     62.89   2505.98
         N          3.134            2.478     31.22    688.70
         N          3.134            2.478     31.22    688.70
         N          3.168            2.478     31.21    688.42
         N          3.135            2.478     31.22    688.68
         N          3.139            2.478     31.22    688.65
         N          3.134            2.478     31.22    688.70
         N          3.136            2.478     31.22    688.68
         N          3.134            2.478     31.22    688.70
         N          3.137            2.478     31.22    688.67
         B          3.335            3.039     62.89   2506.00
         B          3.335            3.039     62.89   2506.01
         B          3.336            3.039     62.89   2505.98
         B          3.355            3.039     62.88   2505.50
         B          3.336            3.039     62.89   2505.98
         B          3.335            3.039     62.89   2506.00
         N          3.136            2.478     31.22    688.68
         B          3.335            3.039     62.89   2506.01
         B          3.336            3.039     62.89   2505.99
         B          3.346            3.039     62.88   2505.73
         N          3.134            2.478     31.22    688.70
         N          3.134            2.478     31.22    688.70
         N          3.135            2.478     31.22    688.68
         N          3.135            2.478     31.22    688.68
         N          3.168            2.478     31.21    688.42
         N          3.135            2.478     31.22    688.68
         B          3.346            3.039     62.88   2505.73
         Cr1        1.094            3.252    610.90  56379.42
         Cr2        1.094            3.252    610.90  56379.42

         Molecular C6 ( Ry / a.u.^6 ) =     68885.04


     Subspace diagonalization in iterative solution of the eigenvalue problem:
     one sub-group per band group will be used
     scalapack distributed-memory algorithm (size of sub-group:  6*  6 procs)

 
     Parallelization info
     --------------------
     sticks:   dense  smooth     PW     G-vecs:    dense   smooth      PW
     Min         235      98     26                36277     9874    1408
     Max         236      99     27                36282     9883    1425
     Sum       11311    4741   1285              1741401   474235   68095
 


     bravais-lattice index     =            4
     lattice parameter (alat)  =      18.9275  a.u.
     unit-cell volume          =   10553.3021 (a.u.)^3
     number of atoms/cell      =           34
     number of atomic types    =            4
     number of electrons       =       156.00
     number of Kohn-Sham states=           94
     kinetic-energy cutoff     =      48.0000  Ry
     charge density cutoff     =     457.0000  Ry
     scf convergence threshold =      1.0E-07
     mixing beta               =       0.5000
     number of iterations used =            8  plain     mixing
     Exchange-correlation= SLA  PW   PBX  PBC
                           (   1   4   3   4   0   0   0)

     celldm(1)=  18.927497  celldm(2)=   0.000000  celldm(3)=   1.797125
     celldm(4)=   0.000000  celldm(5)=   0.000000  celldm(6)=   0.000000

     crystal axes: (cart. coord. in units of alat)
               a(1) = (   1.000000   0.000000   0.000000 )  
               a(2) = (  -0.500000   0.866025   0.000000 )  
               a(3) = (   0.000000   0.000000   1.797125 )  

     reciprocal axes: (cart. coord. in units 2 pi/alat)
               b(1) = (  1.000000  0.577350  0.000000 )  
               b(2) = (  0.000000  1.154701  0.000000 )  
               b(3) = (  0.000000  0.000000  0.556444 )  


     PseudoPot. # 1 for B  read from file:
     /home/sf05/q-e-qe-6.7MaX-Release/pseudo/B.pbe-n-kjpaw_psl.1.0.0.UPF
     MD5 check sum: d9c678ba5d3b2fd7b74e61139c9288d8
     Pseudo is Projector augmented-wave + core cor, Zval =  3.0
     Generated using "atomic" code by A. Dal Corso  v.5.1.2
     Shape of augmentation charge: PSQ
     Using radial grid of 1059 points,  4 beta functions with: 
                l(1) =   0
                l(2) =   0
                l(3) =   1
                l(4) =   1
     Q(r) pseudized with 0 coefficients 


     PseudoPot. # 2 for N  read from file:
     /home/sf05/q-e-qe-6.7MaX-Release/pseudo/N.pbe-n-kjpaw_psl.1.0.0.UPF
     MD5 check sum: e0e4e94a9c4025c5b51bd7d8793849bd
     Pseudo is Projector augmented-wave + core cor, Zval =  5.0
     Generated using "atomic" code by A. Dal Corso  v.5.1.2
     Shape of augmentation charge: PSQ
     Using radial grid of 1085 points,  4 beta functions with: 
                l(1) =   0
                l(2) =   0
                l(3) =   1
                l(4) =   1
     Q(r) pseudized with 0 coefficients 


     PseudoPot. # 3 for Cr read from file:
     /home/sf05/q-e-qe-6.7MaX-Release/pseudo/Cr.pbe-spn-kjpaw_psl.1.0.0.UPF
     MD5 check sum: 198f1a2427a48552563eee314eba32ba
     Pseudo is Projector augmented-wave + core cor, Zval = 14.0
     Generated using &quot;atomic&quot; code by A. Dal Corso  v.6.3
     Shape of augmentation charge: PSQ
     Using radial grid of 1183 points,  6 beta functions with: 
                l(1) =   0
                l(2) =   0
                l(3) =   1
                l(4) =   1
                l(5) =   2
                l(6) =   2
     Q(r) pseudized with 0 coefficients 


     PseudoPot. # 4 for Cr read from file:
     /home/sf05/q-e-qe-6.7MaX-Release/pseudo/Cr.pbe-spn-kjpaw_psl.1.0.0.UPF
     MD5 check sum: 198f1a2427a48552563eee314eba32ba
     Pseudo is Projector augmented-wave + core cor, Zval = 14.0
     Generated using &quot;atomic&quot; code by A. Dal Corso  v.6.3
     Shape of augmentation charge: PSQ
     Using radial grid of 1183 points,  6 beta functions with: 
                l(1) =   0
                l(2) =   0
                l(3) =   1
                l(4) =   1
                l(5) =   2
                l(6) =   2
     Q(r) pseudized with 0 coefficients 


     atomic species   valence    mass     pseudopotential
        B              3.00    10.81100     B ( 1.00)
        N              5.00    14.00674     N ( 1.00)
        Cr1           14.00    51.99610     Cr( 1.00)
        Cr2           14.00    51.99610     Cr( 1.00)

     Starting magnetic structure 
     atomic species   magnetization
        B            0.000
        N            0.000
        Cr1          1.000
        Cr2          1.000

     No symmetry found



   Cartesian axes

     site n.     atom                  positions (alat units)
         1           B   tau(   1) = (  -0.1250000   0.2165064   0.8985623  )
         2           B   tau(   2) = (   0.3750000   0.6495191   0.8985623  )
         3           B   tau(   3) = (   0.2500000   0.0000000   0.8985623  )
         4           B   tau(   4) = (   0.7500000   0.0000000   0.8985623  )
         5           B   tau(   5) = (   0.1250000   0.2165064   0.8985623  )
         6           B   tau(   6) = (  -0.3750000   0.6495191   0.8985623  )
         7           N   tau(   7) = (   0.7500005   0.2886748   0.8985623  )
         8           N   tau(   8) = (   0.3750005   0.5051812   0.8985623  )
         9           N   tau(   9) = (   0.3750005   0.0721685   0.8985623  )
        10           N   tau(  10) = (   0.6250005   0.0721685   0.8985623  )
        11           N   tau(  11) = (   0.2500005   0.2886748   0.8985623  )
        12           N   tau(  12) = (   0.6250005   0.5051812   0.8985623  )
        13           N   tau(  13) = (   0.0000005   0.2886748   0.8985623  )
        14           N   tau(  14) = (   0.2500005   0.7216875   0.8985623  )
        15           N   tau(  15) = (  -0.2499995   0.7216875   0.8985623  )
        16           B   tau(  16) = (   0.0000000   0.4330127   0.8985623  )
        17           B   tau(  17) = (   0.1250000   0.6495191   0.8985623  )
        18           B   tau(  18) = (  -0.1250000   0.6495191   0.8985623  )
        19           B   tau(  19) = (   0.3750000   0.2165064   0.8985623  )
        20           B   tau(  20) = (   0.6250000   0.2165064   0.8985623  )
        21           B   tau(  21) = (   0.5000000   0.4330127   0.8985623  )
        22           N   tau(  22) = (   0.5000005   0.2886748   0.8985623  )
        23           B   tau(  23) = (  -0.2500000   0.4330127   0.8985623  )
        24           B   tau(  24) = (   0.2500000   0.4330127   0.8985623  )
        25           B   tau(  25) = (   0.5000000   0.0000000   0.8985623  )
        26           N   tau(  26) = (  -0.1249995   0.5051812   0.8985623  )
        27           N   tau(  27) = (   0.1250005   0.5051812   0.8985623  )
        28           N   tau(  28) = (   0.0000005   0.7216875   0.8985623  )
        29           N   tau(  29) = (   0.5000005   0.7216875   0.8985623  )
        30           N   tau(  30) = (   0.1250005   0.0721685   0.8985623  )
        31           N   tau(  31) = (   0.8750005   0.0721685   0.8985623  )
        32           B   tau(  32) = (   0.0000000   0.0000000   0.8985623  )
        33           Cr1 tau(  33) = (   0.3600000   0.0866025   1.2040735  )
        34           Cr2 tau(  34) = (   0.1400000   0.0866025   1.2040735  )

     number of k points=    15  Gaussian smearing, width (Ry)=  0.0000
                       cart. coord. in units 2pi/alat
        k(    1) = (   0.1666667   0.2886751   0.0000000), wk =   0.0740741
        k(    2) = (   0.1666667  -0.4811252   0.0000000), wk =   0.0740741
        k(    3) = (   0.1666667  -0.0962250   0.0000000), wk =   0.0740741
        k(    4) = (  -0.5000000  -0.8660254   0.0000000), wk =   0.0370370
        k(    5) = (  -0.1666667   0.2886751   0.0000000), wk =   0.0740741
        k(    6) = (   0.3333333   0.0000000   0.0000000), wk =   0.0740741
        k(    7) = (  -0.1666667  -0.4811252   0.0000000), wk =   0.0740741
        k(    8) = (   0.5000000  -0.0962250   0.0000000), wk =   0.0740741
        k(    9) = (  -0.3333333  -0.3849002   0.0000000), wk =   0.0740741
        k(   10) = (   0.5000000   0.0962250   0.0000000), wk =   0.0740741
        k(   11) = (  -0.3333333   0.3849002   0.0000000), wk =   0.0740741
        k(   12) = (  -0.1666667  -0.0962250   0.0000000), wk =   0.0740741
        k(   13) = (  -0.0000000  -0.1924501   0.0000000), wk =   0.0740741
        k(   14) = (   0.5000000  -0.8660254   0.0000000), wk =   0.0370370
        k(   15) = (  -1.0000000   0.0000000   0.0000000), wk =   0.0370370

     Dense  grid:  1741401 G-vectors     FFT dimensions: ( 135, 135, 240)

     Smooth grid:   474235 G-vectors     FFT dimensions: (  90,  90, 160)

     Estimated max dynamical RAM per process >     218.62 MB

     Estimated total dynamical RAM >      10.25 GB
     Generating pointlists ...
     new r_m :   0.0595 (alat units)  1.1269 (a.u.) for type    1
     new r_m :   0.0595 (alat units)  1.1269 (a.u.) for type    2
     new r_m :   0.0907 (alat units)  1.7177 (a.u.) for type    3
     new r_m :   0.0907 (alat units)  1.7177 (a.u.) for type    4

     Initial potential from superposition of free atoms

     starting charge  155.99382, renormalised to  156.00000

     negative rho (up, down):  6.840E-03 4.655E-04
     Starting wfcs are  148 randomized atomic wfcs
     Checking if some PAW data can be deallocated... 

     total cpu time spent up to now is       19.7 secs

     Self-consistent Calculation

     iteration #  1     ecut=    48.00 Ry     beta= 0.50
     Davidson diagonalization with overlap
     ethr =  1.00E-02,  avg # of iterations =  2.9

     negative rho (up, down):  5.114E-03 2.887E-03

     total cpu time spent up to now is       60.2 secs

     total energy              =   -1130.62434767 Ry
     estimated scf accuracy    <      11.36011226 Ry

     total magnetization       =    12.00 Bohr mag/cell
     absolute magnetization    =    12.13 Bohr mag/cell

     iteration #  2     ecut=    48.00 Ry     beta= 0.50
     Davidson diagonalization with overlap
     ethr =  7.28E-03,  avg # of iterations =  2.8

     negative rho (up, down):  1.444E-02 1.178E-02

     total cpu time spent up to now is       97.5 secs

     total energy              =   -1132.04010151 Ry
     estimated scf accuracy    <       5.61503115 Ry

     total magnetization       =     8.67 Bohr mag/cell
     absolute magnetization    =     9.00 Bohr mag/cell

     iteration #  3     ecut=    48.00 Ry     beta= 0.50
     Davidson diagonalization with overlap
     ethr =  3.60E-03,  avg # of iterations =  6.7

     negative rho (up, down):  1.610E-02 1.627E-02

     total cpu time spent up to now is      138.7 secs

     total energy              =   -1132.78375406 Ry
     estimated scf accuracy    <       4.18997099 Ry

     total magnetization       =     9.04 Bohr mag/cell
     absolute magnetization    =     9.18 Bohr mag/cell

     iteration #  4     ecut=    48.00 Ry     beta= 0.50
     Davidson diagonalization with overlap
     ethr =  2.69E-03,  avg # of iterations =  3.1

     negative rho (up, down):  5.874E-03 3.965E-03

     total cpu time spent up to now is      169.8 secs

     total energy              =   -1133.69703884 Ry
     estimated scf accuracy    <       0.36869421 Ry

     total magnetization       =    10.00 Bohr mag/cell
     absolute magnetization    =    10.08 Bohr mag/cell

     iteration #  5     ecut=    48.00 Ry     beta= 0.50
     Davidson diagonalization with overlap
     ethr =  2.36E-04,  avg # of iterations = 10.2

     negative rho (up, down):  4.460E-03 3.727E-03

     total cpu time spent up to now is      212.4 secs

     total energy              =   -1133.66057991 Ry
     estimated scf accuracy    <       0.76858872 Ry

     total magnetization       =    10.00 Bohr mag/cell
     absolute magnetization    =    10.01 Bohr mag/cell

     iteration #  6     ecut=    48.00 Ry     beta= 0.50
     Davidson diagonalization with overlap
     ethr =  2.36E-04,  avg # of iterations =  6.3

     negative rho (up, down):  3.564E-03 4.055E-03

     total cpu time spent up to now is      247.9 secs

     total energy              =   -1133.73299975 Ry
     estimated scf accuracy    <       0.07863422 Ry

     total magnetization       =    10.00 Bohr mag/cell
     absolute magnetization    =    10.02 Bohr mag/cell

     iteration #  7     ecut=    48.00 Ry     beta= 0.50
     Davidson diagonalization with overlap
     ethr =  5.04E-05,  avg # of iterations =  7.9

     negative rho (up, down):  3.453E-03 3.874E-03

     total cpu time spent up to now is      286.1 secs

     total energy              =   -1133.74244628 Ry
     estimated scf accuracy    <       0.00835054 Ry

     total magnetization       =    10.00 Bohr mag/cell
     absolute magnetization    =    10.03 Bohr mag/cell

     iteration #  8     ecut=    48.00 Ry     beta= 0.50
     Davidson diagonalization with overlap
     c_bands:  1 eigenvalues not converged
     c_bands:  1 eigenvalues not converged
     c_bands:  2 eigenvalues not converged
     ethr =  5.35E-06,  avg # of iterations = 10.3

     negative rho (up, down):  3.204E-03 3.873E-03

     total cpu time spent up to now is      328.2 secs

     total energy              =   -1133.74397237 Ry
     estimated scf accuracy    <       0.00113677 Ry

     total magnetization       =    10.00 Bohr mag/cell
     absolute magnetization    =    10.02 Bohr mag/cell

     iteration #  9     ecut=    48.00 Ry     beta= 0.50
     Davidson diagonalization with overlap
     c_bands:  1 eigenvalues not converged
     c_bands:  1 eigenvalues not converged
     ethr =  7.29E-07,  avg # of iterations =  6.3

     negative rho (up, down):  3.278E-03 3.962E-03

     total cpu time spent up to now is      365.8 secs

     total energy              =   -1133.74433540 Ry
     estimated scf accuracy    <       0.00024085 Ry

     total magnetization       =    10.00 Bohr mag/cell
     absolute magnetization    =    10.02 Bohr mag/cell

     iteration # 10     ecut=    48.00 Ry     beta= 0.50
     Davidson diagonalization with overlap
     ethr =  1.54E-07,  avg # of iterations =  4.2

     negative rho (up, down):  3.246E-03 3.962E-03

     total cpu time spent up to now is      397.9 secs

     total energy              =   -1133.74440131 Ry
     estimated scf accuracy    <       0.00003813 Ry

     total magnetization       =    10.00 Bohr mag/cell
     absolute magnetization    =    10.01 Bohr mag/cell

     iteration # 11     ecut=    48.00 Ry     beta= 0.50
     Davidson diagonalization with overlap
     ethr =  2.44E-08,  avg # of iterations =  4.4

     negative rho (up, down):  3.225E-03 3.962E-03

     total cpu time spent up to now is      431.6 secs

     total energy              =   -1133.74442312 Ry
     estimated scf accuracy    <       0.00000512 Ry

     total magnetization       =    10.00 Bohr mag/cell
     absolute magnetization    =    10.01 Bohr mag/cell

     iteration # 12     ecut=    48.00 Ry     beta= 0.50
     Davidson diagonalization with overlap
     ethr =  3.28E-09,  avg # of iterations =  4.6

     negative rho (up, down):  3.216E-03 3.962E-03

     total cpu time spent up to now is      466.5 secs

     total energy              =   -1133.74443030 Ry
     estimated scf accuracy    <       0.00000187 Ry

     total magnetization       =    10.00 Bohr mag/cell
     absolute magnetization    =    10.01 Bohr mag/cell

     iteration # 13     ecut=    48.00 Ry     beta= 0.50
     Davidson diagonalization with overlap
     ethr =  1.20E-09,  avg # of iterations =  4.5

     negative rho (up, down):  3.211E-03 3.963E-03

     total cpu time spent up to now is      500.9 secs

     total energy              =   -1133.74443306 Ry
     estimated scf accuracy    <       0.00000039 Ry

     total magnetization       =    10.00 Bohr mag/cell
     absolute magnetization    =    10.01 Bohr mag/cell

     iteration # 14     ecut=    48.00 Ry     beta= 0.50
     Davidson diagonalization with overlap
     ethr =  2.52E-10,  avg # of iterations =  4.5

     negative rho (up, down):  3.208E-03 3.962E-03
 
     Magnetic moment per site:
     atom:    1    charge:    0.8805    magn:    0.0001    constr:    0.0000
     atom:    2    charge:    0.8804    magn:    0.0001    constr:    0.0000
     atom:    3    charge:    0.8797    magn:   -0.0004    constr:    0.0000
     atom:    4    charge:    0.8805    magn:    0.0001    constr:    0.0000
     atom:    5    charge:    0.8803    magn:    0.0003    constr:    0.0000
     atom:    6    charge:    0.8801    magn:    0.0001    constr:    0.0000
     atom:    7    charge:    2.8610    magn:    0.0000    constr:    0.0000
     atom:    8    charge:    2.8609    magn:    0.0003    constr:    0.0000
     atom:    9    charge:    2.8615    magn:    0.0106    constr:    0.0000
     atom:   10    charge:    2.8609    magn:    0.0007    constr:    0.0000
     atom:   11    charge:    2.8605    magn:    0.0041    constr:    0.0000
     atom:   12    charge:    2.8609    magn:    0.0001    constr:    0.0000
     atom:   13    charge:    2.8598    magn:    0.0019    constr:    0.0000
     atom:   14    charge:    2.8599    magn:    0.0003    constr:    0.0000
     atom:   15    charge:    2.8596    magn:    0.0027    constr:    0.0000
     atom:   16    charge:    0.8800    magn:    0.0002    constr:    0.0000
     atom:   17    charge:    0.8800    magn:    0.0001    constr:    0.0000
     atom:   18    charge:    0.8798    magn:    0.0001    constr:    0.0000
     atom:   19    charge:    0.8797    magn:    0.0003    constr:    0.0000
     atom:   20    charge:    0.8800    magn:    0.0001    constr:    0.0000
     atom:   21    charge:    0.8797    magn:    0.0002    constr:    0.0000
     atom:   22    charge:    2.8611    magn:    0.0019    constr:    0.0000
     atom:   23    charge:    0.8799    magn:    0.0001    constr:    0.0000
     atom:   24    charge:    0.8798    magn:    0.0002    constr:    0.0000
     atom:   25    charge:    0.8803    magn:    0.0005    constr:    0.0000
     atom:   26    charge:    2.8598    magn:    0.0001    constr:    0.0000
     atom:   27    charge:    2.8597    magn:    0.0003    constr:    0.0000
     atom:   28    charge:    2.8596    magn:    0.0014    constr:    0.0000
     atom:   29    charge:    2.8594    magn:    0.0014    constr:    0.0000
     atom:   30    charge:    2.8602    magn:    0.0106    constr:    0.0000
     atom:   31    charge:    2.8595    magn:    0.0007    constr:    0.0000
     atom:   32    charge:    0.8806    magn:    0.0005    constr:    0.0000
     atom:   33    charge:   11.6548    magn:    3.6444    constr:    0.0000
     atom:   34    charge:   11.6547    magn:    3.6443    constr:    0.0000

     total cpu time spent up to now is      536.4 secs

     End of self-consistent calculation

 ------ SPIN UP ------------


          k = 0.1667 0.2887 0.0000 ( 59267 PWs)   bands (ev):

   -73.1970 -73.0452 -45.1655 -44.5406 -44.4981 -44.4366 -44.3937 -44.3459
   -21.2575 -20.6785 -20.6580 -20.1124 -20.1088 -19.6045 -19.5855 -19.1097
   -18.7158 -18.6948 -18.4639 -18.4635 -18.2058 -18.0970 -18.0836 -17.8591
   -12.4941 -12.2146 -12.2131 -11.8319 -11.8254 -11.6680 -11.2069 -11.1932
   -10.4013 -10.3776 -10.1312 -10.1202  -9.6013  -9.5954  -8.8534  -8.8349
    -8.8328  -8.7816  -8.7656  -8.6060  -8.2066  -8.0836  -8.0073  -7.8391
    -7.8369  -7.4507  -7.4443  -7.2882  -7.2760  -7.2207  -7.2133  -6.9677
    -6.9672  -6.5947  -6.5302  -6.1646  -6.1615  -5.8848  -5.4281  -5.3230
    -5.2771  -5.2098  -4.9187  -4.9150  -4.5215  -4.3664  -4.3465  -3.9900
    -3.6192  -3.1289  -3.1177  -2.5666  -2.0579  -1.9684  -1.4703  -1.4311
    -1.0949  -1.0847  -0.9864  -0.2964   0.4810   0.9568   0.9835   1.2272
     1.3205   1.4724   1.5356   1.5784   1.6189   1.8117

          k = 0.1667-0.4811 0.0000 ( 59291 PWs)   bands (ev):

   -73.1970 -73.0452 -45.1655 -44.5406 -44.4981 -44.4366 -44.3937 -44.3459
   -21.1279 -20.9218 -20.7324 -20.1710 -19.8146 -19.4763 -19.3283 -19.1841
   -19.0244 -18.7876 -18.6539 -18.5526 -18.1606 -18.0972 -17.9311 -17.7336
   -12.3585 -12.1237 -12.0537 -11.9156 -11.6926 -11.6656 -11.5621 -10.9514
   -10.8999 -10.6333 -10.5320  -9.8703  -9.7029  -9.3457  -9.1206  -8.6875
    -8.6332  -8.5627  -8.3985  -8.3799  -8.1708  -8.1287  -8.0752  -8.0574
    -7.6992  -7.6328  -7.5049  -7.4825  -7.3677  -7.1803  -7.0774  -6.8738
    -6.6319  -6.4004  -6.1961  -6.1677  -5.9789  -5.9386  -5.7934  -5.7580
    -5.4608  -5.4046  -5.2279  -5.0493  -4.4606  -4.3545  -4.0988  -3.7783
    -3.6184  -3.1298  -3.1176  -2.5634  -2.0577  -1.9681  -1.4718  -1.4316
    -1.0963  -1.0847  -0.9870  -0.2999   0.4119   0.9974   1.0085   1.0970
     1.2115   1.2949   1.4602   1.8385   1.9116   2.1236

          k = 0.1667-0.0962 0.0000 ( 59226 PWs)   bands (ev):

   -73.1970 -73.0452 -45.1655 -44.5406 -44.4980 -44.4366 -44.3937 -44.3459
   -21.3238 -20.5470 -20.3585 -20.3450 -20.0045 -19.9852 -19.8147 -18.7467
   -18.7270 -18.3891 -18.3811 -18.3613 -18.2740 -18.2729 -18.0885 -18.0778
   -12.5154 -12.5139 -12.4176 -11.5938 -11.5830 -11.4333 -11.4327 -10.9368
   -10.9320  -9.9406  -9.9343  -9.6856  -9.3844  -9.3827  -9.2401  -9.2366
    -9.0516  -9.0500  -8.9389  -8.3347  -8.3296  -7.9115  -7.9095  -7.8988
    -7.8545  -7.7801  -7.6260  -7.5850  -7.1595  -7.0900  -6.9693  -6.8998
    -6.8929  -6.8582  -6.5428  -6.5359  -6.2672  -5.3822  -5.3164  -5.1529
    -5.0750  -4.8328  -4.8174  -4.7554  -4.6178  -4.6140  -4.3684  -4.3341
    -3.6200  -3.1283  -3.1178  -2.5698  -2.0593  -1.9685  -1.4691  -1.4306
    -1.0931  -1.0853  -0.9858  -0.2923   0.5506   0.9115   0.9667   1.2281
     1.2701   1.3687   1.5837   1.5958   1.7771   2.0091

          k =-0.5000-0.8660 0.0000 ( 59292 PWs)   bands (ev):

   -73.1970 -73.0452 -45.1655 -44.5407 -44.4980 -44.4366 -44.3936 -44.3459
   -21.0700 -21.0474 -20.4838 -20.4692 -19.4415 -19.4372 -19.4169 -19.4156
   -19.0087 -18.9919 -18.3427 -18.3410 -18.3160 -18.3156 -17.8070 -17.7940
   -12.0865 -12.0842 -12.0651 -12.0637 -11.8922 -11.8782 -11.3444 -11.3310
   -10.2494 -10.2385 -10.1457 -10.1437 -10.1352 -10.1347  -8.6281  -8.5647
    -8.5628  -8.5470  -8.5456  -8.5341  -7.8784  -7.8761  -7.8663  -7.8651
    -7.8319  -7.8278  -7.8014  -7.7545  -7.5055  -7.4901  -6.6255  -6.6135
    -6.3763  -6.3680  -6.3002  -6.2979  -6.2036  -6.1927  -5.7313  -5.6977
    -5.5611  -5.5457  -4.7604  -4.7498  -4.6907  -4.6807  -3.9072  -3.8694
    -3.6154  -3.1286  -3.1187  -2.5632  -2.0580  -1.9685  -1.4699  -1.4314
    -1.1041  -1.0878  -0.9913  -0.4000   0.5250   1.0188   1.0483   1.1178
     1.4175   1.5797   1.5953   1.6111   1.7839   1.8498

          k =-0.1667 0.2887 0.0000 ( 59267 PWs)   bands (ev):

   -73.1970 -73.0452 -45.1655 -44.5406 -44.4981 -44.4366 -44.3937 -44.3459
   -21.2575 -20.6785 -20.6581 -20.1123 -20.1088 -19.6045 -19.5855 -19.1097
   -18.7158 -18.6948 -18.4639 -18.4635 -18.2058 -18.0970 -18.0836 -17.8591
   -12.4941 -12.2146 -12.2131 -11.8319 -11.8254 -11.6680 -11.2068 -11.1932
   -10.4013 -10.3776 -10.1312 -10.1202  -9.6012  -9.5954  -8.8534  -8.8349
    -8.8327  -8.7816  -8.7656  -8.6059  -8.2066  -8.0836  -8.0073  -7.8391
    -7.8368  -7.4508  -7.4443  -7.2882  -7.2760  -7.2206  -7.2133  -6.9677
    -6.9673  -6.5947  -6.5303  -6.1646  -6.1615  -5.8848  -5.4282  -5.3230
    -5.2772  -5.2097  -4.9187  -4.9150  -4.5215  -4.3663  -4.3465  -3.9900
    -3.6192  -3.1289  -3.1177  -2.5666  -2.0579  -1.9684  -1.4703  -1.4311
    -1.0949  -1.0847  -0.9864  -0.2964   0.4810   0.9568   0.9835   1.2272
     1.3204   1.4724   1.5355   1.5784   1.6189   1.8117

          k = 0.3333 0.0000 0.0000 ( 59267 PWs)   bands (ev):

   -73.1970 -73.0452 -45.1655 -44.5406 -44.4981 -44.4366 -44.3937 -44.3459
   -21.2571 -20.6986 -20.6377 -20.1224 -20.0969 -19.6261 -19.5663 -19.1123
   -18.7274 -18.6770 -18.4770 -18.4521 -18.2019 -18.1184 -18.0692 -17.8580
   -12.4930 -12.2230 -12.2053 -11.8405 -11.8196 -11.6658 -11.2205 -11.1797
   -10.4012 -10.3766 -10.1418 -10.1105  -9.6055  -9.5895  -8.8527  -8.8408
    -8.8245  -8.8001  -8.7488  -8.6072  -8.2087  -8.1186  -7.9717  -7.8398
    -7.8340  -7.4550  -7.4393  -7.3142  -7.2440  -7.2283  -7.2055  -6.9785
    -6.9581  -6.6331  -6.4993  -6.1668  -6.1584  -5.8934  -5.4280  -5.3331
    -5.2524  -5.2101  -4.9468  -4.8888  -4.5175  -4.3963  -4.3277  -3.9883
    -3.6171  -3.1284  -3.1174  -2.5664  -2.0593  -1.9684  -1.4689  -1.4310
    -1.0997  -1.0872  -0.9892  -0.3661   0.5480   0.9682   1.1368   1.2175
     1.3308   1.4825   1.5380   1.5768   1.5815   1.9360

          k =-0.1667-0.4811 0.0000 ( 59291 PWs)   bands (ev):

   -73.1970 -73.0452 -45.1655 -44.5406 -44.4981 -44.4366 -44.3937 -44.3459
   -21.1279 -20.9218 -20.7324 -20.1710 -19.8146 -19.4763 -19.3283 -19.1841
   -19.0244 -18.7876 -18.6539 -18.5526 -18.1606 -18.0972 -17.9311 -17.7336
   -12.3586 -12.1237 -12.0537 -11.9156 -11.6926 -11.6656 -11.5621 -10.9514
   -10.8999 -10.6333 -10.5319  -9.8702  -9.7029  -9.3458  -9.1207  -8.6875
    -8.6332  -8.5627  -8.3985  -8.3799  -8.1707  -8.1287  -8.0753  -8.0574
    -7.6991  -7.6329  -7.5048  -7.4825  -7.3677  -7.1803  -7.0774  -6.8738
    -6.6319  -6.4005  -6.1961  -6.1677  -5.9789  -5.9386  -5.7934  -5.7580
    -5.4609  -5.4046  -5.2279  -5.0493  -4.4606  -4.3545  -4.0988  -3.7783
    -3.6184  -3.1298  -3.1176  -2.5634  -2.0577  -1.9681  -1.4718  -1.4316
    -1.0963  -1.0847  -0.9870  -0.2999   0.4119   0.9974   1.0085   1.0970
     1.2115   1.2949   1.4602   1.8382   1.9116   2.1236

          k = 0.5000-0.0962 0.0000 ( 59291 PWs)   bands (ev):

   -73.1970 -73.0452 -45.1655 -44.5406 -44.4981 -44.4366 -44.3937 -44.3460
   -21.1249 -20.9300 -20.7272 -20.1691 -19.8141 -19.4797 -19.3336 -19.1786
   -19.0262 -18.7898 -18.6413 -18.5589 -18.1497 -18.1133 -17.9281 -17.7330
   -12.3565 -12.1246 -12.0519 -11.9204 -11.7038 -11.6520 -11.5641 -10.9519
   -10.8975 -10.6313 -10.5348  -9.8678  -9.7034  -9.3466  -9.1200  -8.6781
    -8.6341  -8.5607  -8.4079  -8.4020  -8.1688  -8.1120  -8.0878  -8.0460
    -7.6945  -7.6334  -7.5043  -7.4835  -7.3618  -7.1819  -7.0782  -6.8708
    -6.6323  -6.4136  -6.2075  -6.1669  -5.9655  -5.9379  -5.7926  -5.7621
    -5.4621  -5.4096  -5.1998  -5.0620  -4.4446  -4.3789  -4.0949  -3.7771
    -3.6152  -3.1287  -3.1186  -2.5632  -2.0586  -1.9684  -1.4699  -1.4314
    -1.1041  -1.0879  -0.9912  -0.3994   0.5143   1.0171   1.0409   1.1570
     1.2557   1.3173   1.6706   1.7839   1.9687   1.9891

          k =-0.3333-0.3849 0.0000 ( 59291 PWs)   bands (ev):

   -73.1970 -73.0452 -45.1655 -44.5406 -44.4981 -44.4366 -44.3937 -44.3459
   -21.1260 -20.9271 -20.7292 -20.1687 -19.8169 -19.4769 -19.3278 -19.1833
   -19.0291 -18.7874 -18.6430 -18.5584 -18.1518 -18.1103 -17.9283 -17.7332
   -12.3578 -12.1216 -12.0546 -11.9186 -11.6934 -11.6641 -11.5633 -10.9519
   -10.8972 -10.6308 -10.5353  -9.8684  -9.7035  -9.3461  -9.1214  -8.6814
    -8.6324  -8.5624  -8.4003  -8.3967  -8.1702  -8.1189  -8.0759  -8.0595
    -7.6947  -7.6321  -7.5106  -7.4775  -7.3596  -7.1820  -7.0790  -6.8811
    -6.6301  -6.4035  -6.1916  -6.1694  -5.9792  -5.9367  -5.7929  -5.7705
    -5.4619  -5.4023  -5.2027  -5.0629  -4.4456  -4.3763  -4.0949  -3.7773
    -3.6164  -3.1289  -3.1187  -2.5633  -2.0579  -1.9684  -1.4707  -1.4314
    -1.1015  -1.0868  -0.9898  -0.3694   0.4834   1.0108   1.0319   1.1158
     1.2242   1.3625   1.5906   1.8556   1.9076   1.9848

          k = 0.5000 0.0962 0.0000 ( 59291 PWs)   bands (ev):

   -73.1970 -73.0452 -45.1655 -44.5406 -44.4981 -44.4366 -44.3937 -44.3460
   -21.1249 -20.9300 -20.7272 -20.1691 -19.8141 -19.4797 -19.3336 -19.1786
   -19.0262 -18.7898 -18.6413 -18.5589 -18.1497 -18.1133 -17.9281 -17.7330
   -12.3565 -12.1246 -12.0519 -11.9204 -11.7038 -11.6520 -11.5641 -10.9519
   -10.8975 -10.6313 -10.5348  -9.8678  -9.7034  -9.3465  -9.1200  -8.6781
    -8.6341  -8.5607  -8.4079  -8.4020  -8.1688  -8.1120  -8.0878  -8.0460
    -7.6946  -7.6334  -7.5043  -7.4835  -7.3618  -7.1820  -7.0782  -6.8708
    -6.6322  -6.4136  -6.2075  -6.1668  -5.9655  -5.9379  -5.7927  -5.7621
    -5.4622  -5.4096  -5.1998  -5.0620  -4.4446  -4.3789  -4.0949  -3.7771
    -3.6152  -3.1287  -3.1186  -2.5632  -2.0586  -1.9684  -1.4699  -1.4313
    -1.1041  -1.0879  -0.9912  -0.3994   0.5143   1.0171   1.0409   1.1571
     1.2557   1.3172   1.6706   1.7838   1.9686   1.9890

          k =-0.3333 0.3849 0.0000 ( 59291 PWs)   bands (ev):

   -73.1970 -73.0452 -45.1655 -44.5406 -44.4981 -44.4366 -44.3937 -44.3459
   -21.1260 -20.9271 -20.7292 -20.1687 -19.8169 -19.4769 -19.3278 -19.1833
   -19.0291 -18.7874 -18.6430 -18.5584 -18.1519 -18.1103 -17.9283 -17.7332
   -12.3578 -12.1216 -12.0546 -11.9185 -11.6934 -11.6642 -11.5633 -10.9520
   -10.8972 -10.6307 -10.5353  -9.8684  -9.7035  -9.3461  -9.1214  -8.6814
    -8.6324  -8.5623  -8.4003  -8.3967  -8.1703  -8.1189  -8.0758  -8.0595
    -7.6947  -7.6321  -7.5106  -7.4775  -7.3596  -7.1819  -7.0790  -6.8811
    -6.6302  -6.4035  -6.1916  -6.1694  -5.9792  -5.9368  -5.7928  -5.7705
    -5.4618  -5.4023  -5.2027  -5.0629  -4.4457  -4.3763  -4.0949  -3.7772
    -3.6164  -3.1289  -3.1187  -2.5633  -2.0579  -1.9684  -1.4707  -1.4314
    -1.1015  -1.0868  -0.9898  -0.3694   0.4834   1.0108   1.0319   1.1158
     1.2242   1.3625   1.5906   1.8556   1.9076   1.9848

          k =-0.1667-0.0962 0.0000 ( 59226 PWs)   bands (ev):

   -73.1970 -73.0452 -45.1655 -44.5406 -44.4980 -44.4366 -44.3937 -44.3459
   -21.3238 -20.5470 -20.3585 -20.3450 -20.0045 -19.9852 -19.8147 -18.7467
   -18.7270 -18.3891 -18.3811 -18.3613 -18.2740 -18.2730 -18.0885 -18.0778
   -12.5154 -12.5139 -12.4176 -11.5938 -11.5830 -11.4333 -11.4327 -10.9368
   -10.9320  -9.9407  -9.9343  -9.6855  -9.3843  -9.3826  -9.2401  -9.2366
    -9.0516  -9.0500  -8.9389  -8.3347  -8.3296  -7.9115  -7.9095  -7.8988
    -7.8544  -7.7801  -7.6259  -7.5850  -7.1595  -7.0900  -6.9694  -6.8998
    -6.8928  -6.8582  -6.5428  -6.5359  -6.2673  -5.3822  -5.3164  -5.1528
    -5.0751  -4.8328  -4.8173  -4.7554  -4.6178  -4.6140  -4.3685  -4.3341
    -3.6200  -3.1283  -3.1178  -2.5698  -2.0593  -1.9685  -1.4691  -1.4306
    -1.0931  -1.0853  -0.9858  -0.2923   0.5506   0.9115   0.9666   1.2281
     1.2701   1.3687   1.5837   1.5957   1.7766   1.9855

          k =-0.0000-0.1925 0.0000 ( 59226 PWs)   bands (ev):

   -73.1970 -73.0452 -45.1655 -44.5406 -44.4980 -44.4366 -44.3937 -44.3459
   -21.3240 -20.5418 -20.3590 -20.3541 -19.9924 -19.9895 -19.8181 -18.7372
   -18.7326 -18.4165 -18.3693 -18.3647 -18.2642 -18.2625 -18.0868 -18.0847
   -12.5234 -12.5060 -12.4175 -11.5902 -11.5877 -11.4415 -11.4218 -10.9360
   -10.9348  -9.9379  -9.9372  -9.6854  -9.3901  -9.3757  -9.2397  -9.2389
    -9.0507  -9.0504  -8.9394  -8.3325  -8.3313  -7.9121  -7.9058  -7.8837
    -7.8553  -7.7820  -7.6265  -7.6148  -7.1155  -7.1109  -6.9680  -6.8974
    -6.8966  -6.8664  -6.5398  -6.5384  -6.2677  -5.3474  -5.3432  -5.1532
    -5.0746  -4.8819  -4.7907  -4.7633  -4.6073  -4.5936  -4.3580  -4.3525
    -3.6210  -3.1286  -3.1179  -2.5699  -2.0586  -1.9685  -1.4698  -1.4307
    -1.0911  -1.0839  -0.9844  -0.2504   0.5116   0.8815   0.9246   1.1828
     1.2886   1.3969   1.5785   1.6138   1.7127   1.9993

          k = 0.5000-0.8660 0.0000 ( 59292 PWs)   bands (ev):

   -73.1970 -73.0452 -45.1655 -44.5407 -44.4980 -44.4366 -44.3936 -44.3459
   -21.0700 -21.0474 -20.4838 -20.4692 -19.4415 -19.4372 -19.4169 -19.4156
   -19.0086 -18.9920 -18.3427 -18.3409 -18.3161 -18.3157 -17.8070 -17.7940
   -12.0864 -12.0842 -12.0652 -12.0638 -11.8922 -11.8782 -11.3443 -11.3310
   -10.2494 -10.2385 -10.1457 -10.1437 -10.1352 -10.1347  -8.6281  -8.5646
    -8.5627  -8.5470  -8.5457  -8.5341  -7.8784  -7.8760  -7.8663  -7.8652
    -7.8320  -7.8279  -7.8013  -7.7545  -7.5055  -7.4902  -6.6254  -6.6135
    -6.3763  -6.3680  -6.3002  -6.2979  -6.2034  -6.1927  -5.7313  -5.6977
    -5.5611  -5.5458  -4.7604  -4.7498  -4.6907  -4.6807  -3.9072  -3.8694
    -3.6154  -3.1286  -3.1187  -2.5632  -2.0580  -1.9685  -1.4699  -1.4314
    -1.1041  -1.0878  -0.9913  -0.4000   0.5250   1.0188   1.0483   1.1178
     1.4174   1.5797   1.5953   1.6110   1.7838   1.8499

          k =-1.0000 0.0000 0.0000 ( 59292 PWs)   bands (ev):

   -73.1970 -73.0452 -45.1655 -44.5407 -44.4980 -44.4366 -44.3936 -44.3460
   -21.0881 -21.0263 -20.4812 -20.4769 -19.4399 -19.4387 -19.4160 -19.4106
   -19.0245 -18.9768 -18.3975 -18.3199 -18.3136 -18.2859 -17.8026 -17.8002
   -12.1253 -12.0768 -12.0550 -12.0390 -11.8863 -11.8843 -11.3605 -11.3165
   -10.2519 -10.2511 -10.1390 -10.1389 -10.1346 -10.1343  -8.6546  -8.5928
    -8.5600  -8.5396  -8.5232  -8.4975  -7.8841  -7.8808  -7.8705  -7.8692
    -7.8218  -7.8210  -7.7889  -7.7835  -7.5252  -7.4726  -6.6187  -6.6175
    -6.3710  -6.3629  -6.2976  -6.2936  -6.2196  -6.1794  -5.7508  -5.6800
    -5.5779  -5.5291  -4.8517  -4.7076  -4.6834  -4.6451  -3.8912  -3.8885
    -3.6193  -3.1303  -3.1164  -2.5634  -2.0575  -1.9679  -1.4721  -1.4318
    -1.0938  -1.0837  -0.9857  -0.2598   0.3812   0.9928   1.0009   1.1060
     1.1445   1.5312   1.6107   1.6169   1.6342   1.8908

 ------ SPIN DOWN ----------


          k = 0.1667 0.2887 0.0000 ( 59267 PWs)   bands (ev):

   -69.0701 -68.9081 -41.2271 -40.4080 -40.3519 -40.3473 -40.2954 -40.2342
   -21.2532 -20.6726 -20.6557 -20.1079 -20.1049 -19.5985 -19.5832 -19.1052
   -18.7081 -18.6924 -18.4596 -18.4592 -18.2001 -18.0920 -18.0814 -17.8547
   -12.4919 -12.2122 -12.2106 -11.8293 -11.8236 -11.6659 -11.2036 -11.1914
   -10.3984 -10.3752 -10.1273 -10.1185  -9.5983  -9.5933  -8.8344  -8.8315
    -8.8255  -8.7780  -8.7642  -8.6036  -8.2042  -8.0536  -7.9996  -7.8364
    -7.8344  -7.4466  -7.4418  -7.2678  -7.2596  -7.2174  -7.2115  -6.9652
    -6.9647  -6.5688  -6.5237  -6.1614  -6.1591  -5.8657  -5.4249  -5.2936
    -5.2638  -5.2069  -4.9023  -4.9010  -4.5006  -4.3514  -4.3356  -3.9744
    -1.5571   0.1242   0.1822   0.2394   0.5572   1.0874   1.1157   1.2248
     1.3387   1.4277   1.5084   1.5337   1.5748   1.6039   1.8157   1.9025
     2.0685   2.1120   2.2170   2.2750   2.3689   2.4324

          k = 0.1667-0.4811 0.0000 ( 59291 PWs)   bands (ev):

   -69.0701 -68.9081 -41.2271 -40.4080 -40.3519 -40.3473 -40.2953 -40.2342
   -21.1231 -20.9182 -20.7284 -20.1667 -19.8104 -19.4720 -19.3237 -19.1799
   -19.0200 -18.7837 -18.6477 -18.5494 -18.1540 -18.0949 -17.9268 -17.7290
   -12.3562 -12.1212 -12.0515 -11.9135 -11.6899 -11.6636 -11.5598 -10.9487
   -10.8971 -10.6307 -10.5296  -9.8671  -9.7005  -9.3427  -9.1181  -8.6585
    -8.6304  -8.5597  -8.3961  -8.3659  -8.1683  -8.1123  -8.0719  -8.0557
    -7.6961  -7.6303  -7.5019  -7.4805  -7.3481  -7.1772  -7.0748  -6.8553
    -6.6284  -6.3829  -6.1746  -6.1649  -5.9641  -5.9353  -5.7905  -5.7401
    -5.4581  -5.3899  -5.2003  -5.0397  -4.4357  -4.3474  -4.0835  -3.7629
    -1.5498   0.1220   0.1835   0.2506   0.5470   0.9968   1.0518   1.1724
     1.2370   1.3305   1.4887   1.5172   1.6548   1.8243   1.9096   2.0977
     2.1307   2.2006   2.2492   2.2630   2.3471   2.3850

          k = 0.1667-0.0962 0.0000 ( 59226 PWs)   bands (ev):

   -69.0701 -68.9080 -41.2271 -40.4080 -40.3519 -40.3472 -40.2954 -40.2342
   -21.3196 -20.5421 -20.3542 -20.3418 -19.9987 -19.9821 -19.8113 -18.7400
   -18.7234 -18.3823 -18.3761 -18.3582 -18.2699 -18.2691 -18.0844 -18.0747
   -12.5131 -12.5115 -12.4153 -11.5911 -11.5812 -11.4309 -11.4301 -10.9340
   -10.9297  -9.9376  -9.9324  -9.6826  -9.3817  -9.3802  -9.2370  -9.2339
    -9.0490  -9.0478  -8.9167  -8.3312  -8.3266  -7.9085  -7.9069  -7.8716
    -7.8508  -7.7776  -7.6068  -7.5752  -7.1295  -7.0808  -6.9664  -6.8968
    -6.8908  -6.8477  -6.5397  -6.5337  -6.2645  -5.3491  -5.3054  -5.1498
    -5.0720  -4.8059  -4.7962  -4.7440  -4.6044  -4.6023  -4.3499  -4.3249
    -1.5643   0.1254   0.1818   0.2274   0.5725   0.9739   1.1481   1.2400
     1.3877   1.4604   1.5218   1.5601   1.6419   1.7019   1.8071   1.9387
     2.0200   2.0647   2.1021   2.3009   2.3295   2.4126

          k =-0.5000-0.8660 0.0000 ( 59292 PWs)   bands (ev):

   -69.0701 -68.9081 -41.2272 -40.4080 -40.3519 -40.3472 -40.2954 -40.2342
   -21.0637 -21.0451 -20.4792 -20.4661 -19.4346 -19.4316 -19.4140 -19.4129
   -19.0024 -18.9900 -18.3351 -18.3335 -18.3147 -18.3140 -17.8018 -17.7905
   -12.0827 -12.0807 -12.0639 -12.0625 -11.8896 -11.8767 -11.3412 -11.3292
   -10.2458 -10.2366 -10.1423 -10.1409 -10.1329 -10.1325  -8.5912  -8.5604
    -8.5588  -8.5457  -8.5445  -8.5268  -7.8747  -7.8728  -7.8641  -7.8631
    -7.8289  -7.8242  -7.7803  -7.7448  -7.5019  -7.4889  -6.6216  -6.6116
    -6.3438  -6.3378  -6.2915  -6.2898  -6.1996  -6.1906  -5.7107  -5.6879
    -5.5567  -5.5443  -4.7296  -4.7229  -4.6841  -4.6778  -3.8868  -3.8594
    -1.5356   0.1248   0.1868   0.2467   0.3415   1.0488   1.0739   1.1913
     1.4272   1.5256   1.5589   1.5871   1.6042   1.7179   1.7998   1.9311
     1.9652   2.2205   2.2516   2.2727   2.3130   2.4385

          k =-0.1667 0.2887 0.0000 ( 59267 PWs)   bands (ev):

   -69.0701 -68.9081 -41.2271 -40.4080 -40.3519 -40.3473 -40.2954 -40.2342
   -21.2532 -20.6726 -20.6558 -20.1079 -20.1049 -19.5985 -19.5833 -19.1052
   -18.7081 -18.6924 -18.4596 -18.4592 -18.2001 -18.0920 -18.0815 -17.8547
   -12.4918 -12.2122 -12.2106 -11.8293 -11.8236 -11.6659 -11.2035 -11.1915
   -10.3984 -10.3751 -10.1273 -10.1185  -9.5982  -9.5934  -8.8344  -8.8315
    -8.8255  -8.7780  -8.7643  -8.6035  -8.2042  -8.0536  -7.9997  -7.8364
    -7.8344  -7.4466  -7.4418  -7.2678  -7.2597  -7.2173  -7.2115  -6.9652
    -6.9648  -6.5688  -6.5237  -6.1614  -6.1591  -5.8657  -5.4250  -5.2936
    -5.2639  -5.2068  -4.9023  -4.9010  -4.5006  -4.3514  -4.3357  -3.9744
    -1.5571   0.1242   0.1822   0.2394   0.5572   1.0874   1.1158   1.2248
     1.3387   1.4277   1.5084   1.5337   1.5747   1.6039   1.8157   1.9025
     2.0686   2.1120   2.2170   2.2752   2.3690   2.4326

          k = 0.3333 0.0000 0.0000 ( 59267 PWs)   bands (ev):

   -69.0701 -68.9081 -41.2271 -40.4080 -40.3519 -40.3473 -40.2953 -40.2342
   -21.2528 -20.6923 -20.6359 -20.1173 -20.0937 -19.6194 -19.5644 -19.1075
   -18.7202 -18.6751 -18.4716 -18.4487 -18.1966 -18.1123 -18.0673 -17.8538
   -12.4906 -12.2203 -12.2031 -11.8379 -11.8176 -11.6639 -11.2168 -11.1781
   -10.3985 -10.3741 -10.1380 -10.1088  -9.6025  -9.5876  -8.8373  -8.8322
    -8.8193  -8.7962  -8.7477  -8.6046  -8.2060  -8.0853  -7.9677  -7.8369
    -7.8319  -7.4509  -7.4368  -7.2882  -7.2351  -7.2248  -7.2038  -6.9753
    -6.9561  -6.6025  -6.4952  -6.1637  -6.1561  -5.8712  -5.4248  -5.3055
    -5.2426  -5.2072  -4.9250  -4.8796  -4.4961  -4.3773  -4.3189  -3.9730
    -1.5478   0.1296   0.1864   0.2332   0.4163   0.9577   1.2103   1.3506
     1.4451   1.4857   1.5116   1.5255   1.6087   1.6505   1.6624   1.9654
     2.0501   2.1833   2.2140   2.3156   2.3482   2.4322

          k =-0.1667-0.4811 0.0000 ( 59291 PWs)   bands (ev):

   -69.0701 -68.9081 -41.2271 -40.4080 -40.3519 -40.3473 -40.2953 -40.2342
   -21.1231 -20.9182 -20.7283 -20.1667 -19.8104 -19.4720 -19.3237 -19.1799
   -19.0200 -18.7837 -18.6477 -18.5494 -18.1540 -18.0949 -17.9268 -17.7290
   -12.3562 -12.1212 -12.0515 -11.9134 -11.6899 -11.6636 -11.5598 -10.9487
   -10.8971 -10.6307 -10.5296  -9.8671  -9.7005  -9.3428  -9.1181  -8.6585
    -8.6304  -8.5597  -8.3961  -8.3659  -8.1682  -8.1123  -8.0720  -8.0557
    -7.6961  -7.6303  -7.5018  -7.4805  -7.3481  -7.1771  -7.0748  -6.8552
    -6.6285  -6.3829  -6.1746  -6.1649  -5.9641  -5.9353  -5.7905  -5.7401
    -5.4581  -5.3899  -5.2003  -5.0397  -4.4357  -4.3474  -4.0835  -3.7629
    -1.5498   0.1220   0.1835   0.2506   0.5470   0.9968   1.0518   1.1723
     1.2370   1.3306   1.4887   1.5172   1.6549   1.8243   1.9096   2.0977
     2.1308   2.2007   2.2494   2.2630   2.3457   2.3851

          k = 0.5000-0.0962 0.0000 ( 59291 PWs)   bands (ev):

   -69.0701 -68.9081 -41.2271 -40.4080 -40.3519 -40.3473 -40.2954 -40.2342
   -21.1204 -20.9255 -20.7238 -20.1651 -19.8100 -19.4748 -19.3284 -19.1751
   -19.0214 -18.7855 -18.6369 -18.5549 -18.1438 -18.1095 -17.9243 -17.7285
   -12.3542 -12.1221 -12.0498 -11.9178 -11.7009 -11.6506 -11.5616 -10.9493
   -10.8948 -10.6288 -10.5323  -9.8650  -9.7009  -9.3435  -9.1175  -8.6517
    -8.6310  -8.5578  -8.4009  -8.3851  -8.1665  -8.1002  -8.0838  -8.0448
    -7.6920  -7.6308  -7.5012  -7.4815  -7.3439  -7.1786  -7.0755  -6.8535
    -6.6288  -6.3908  -6.1841  -6.1643  -5.9543  -5.9347  -5.7898  -5.7427
    -5.4593  -5.3929  -5.1811  -5.0490  -4.4209  -4.3681  -4.0808  -3.7620
    -1.5356   0.1250   0.1873   0.2410   0.3492   1.0053   1.0387   1.1864
     1.3271   1.4580   1.5181   1.5446   1.6833   1.8469   1.9839   2.0417
     2.1197   2.1871   2.2275   2.2609   2.3398   2.4172

          k =-0.3333-0.3849 0.0000 ( 59291 PWs)   bands (ev):

   -69.0701 -68.9081 -41.2271 -40.4080 -40.3519 -40.3473 -40.2954 -40.2342
   -21.1213 -20.9229 -20.7256 -20.1647 -19.8124 -19.4725 -19.3234 -19.1790
   -19.0241 -18.7834 -18.6383 -18.5545 -18.1458 -18.1068 -17.9244 -17.7288
   -12.3555 -12.1191 -12.0524 -11.9161 -11.6909 -11.6622 -11.5608 -10.9493
   -10.8947 -10.6283 -10.5326  -9.8654  -9.7010  -9.3432  -9.1187  -8.6539
    -8.6296  -8.5592  -8.3977  -8.3782  -8.1678  -8.1051  -8.0723  -8.0577
    -7.6922  -7.6296  -7.5071  -7.4760  -7.3426  -7.1787  -7.0762  -6.8602
    -6.6269  -6.3846  -6.1731  -6.1660  -5.9634  -5.9337  -5.7900  -5.7488
    -5.4591  -5.3882  -5.1826  -5.0496  -4.4225  -4.3656  -4.0806  -3.7623
    -1.5404   0.1225   0.1852   0.2470   0.4010   1.0186   1.0793   1.1917
     1.2369   1.3708   1.5126   1.5338   1.7174   1.9477   1.9870   2.0581
     2.0983   2.1132   2.2003   2.2346   2.3488   2.4142

          k = 0.5000 0.0962 0.0000 ( 59291 PWs)   bands (ev):

   -69.0701 -68.9081 -41.2271 -40.4080 -40.3519 -40.3473 -40.2954 -40.2342
   -21.1204 -20.9255 -20.7238 -20.1651 -19.8100 -19.4748 -19.3284 -19.1751
   -19.0214 -18.7855 -18.6369 -18.5549 -18.1438 -18.1095 -17.9243 -17.7285
   -12.3542 -12.1221 -12.0498 -11.9179 -11.7008 -11.6506 -11.5616 -10.9493
   -10.8948 -10.6288 -10.5323  -9.8650  -9.7010  -9.3435  -9.1175  -8.6517
    -8.6310  -8.5578  -8.4009  -8.3851  -8.1665  -8.1002  -8.0838  -8.0448
    -7.6920  -7.6308  -7.5013  -7.4816  -7.3439  -7.1787  -7.0755  -6.8535
    -6.6288  -6.3908  -6.1841  -6.1642  -5.9543  -5.9347  -5.7898  -5.7427
    -5.4593  -5.3929  -5.1810  -5.0490  -4.4209  -4.3681  -4.0808  -3.7620
    -1.5356   0.1250   0.1873   0.2410   0.3492   1.0053   1.0387   1.1865
     1.3271   1.4580   1.5181   1.5446   1.6833   1.8469   1.9839   2.0418
     2.1197   2.1873   2.2276   2.2609   2.3396   2.4170

          k =-0.3333 0.3849 0.0000 ( 59291 PWs)   bands (ev):

   -69.0701 -68.9081 -41.2271 -40.4080 -40.3519 -40.3473 -40.2954 -40.2342
   -21.1213 -20.9229 -20.7256 -20.1647 -19.8124 -19.4725 -19.3234 -19.1791
   -19.0241 -18.7834 -18.6383 -18.5545 -18.1458 -18.1068 -17.9245 -17.7288
   -12.3555 -12.1191 -12.0525 -11.9161 -11.6909 -11.6623 -11.5608 -10.9493
   -10.8946 -10.6283 -10.5326  -9.8654  -9.7010  -9.3432  -9.1187  -8.6539
    -8.6297  -8.5592  -8.3977  -8.3782  -8.1679  -8.1051  -8.0723  -8.0577
    -7.6921  -7.6296  -7.5071  -7.4759  -7.3426  -7.1786  -7.0763  -6.8602
    -6.6269  -6.3845  -6.1730  -6.1661  -5.9634  -5.9337  -5.7899  -5.7488
    -5.4590  -5.3882  -5.1826  -5.0496  -4.4226  -4.3656  -4.0806  -3.7623
    -1.5404   0.1225   0.1852   0.2470   0.4010   1.0186   1.0793   1.1917
     1.2369   1.3708   1.5126   1.5338   1.7173   1.9477   1.9870   2.0581
     2.0983   2.1131   2.2002   2.2345   2.3487   2.4139

          k =-0.1667-0.0962 0.0000 ( 59226 PWs)   bands (ev):

   -69.0701 -68.9080 -41.2271 -40.4080 -40.3519 -40.3472 -40.2954 -40.2342
   -21.3196 -20.5421 -20.3542 -20.3419 -19.9987 -19.9821 -19.8113 -18.7400
   -18.7234 -18.3822 -18.3761 -18.3582 -18.2699 -18.2691 -18.0844 -18.0747
   -12.5132 -12.5115 -12.4153 -11.5911 -11.5812 -11.4309 -11.4301 -10.9340
   -10.9297  -9.9376  -9.9324  -9.6826  -9.3817  -9.3802  -9.2370  -9.2339
    -9.0490  -9.0478  -8.9167  -8.3313  -8.3267  -7.9085  -7.9068  -7.8716
    -7.8508  -7.7776  -7.6068  -7.5752  -7.1295  -7.0808  -6.9665  -6.8968
    -6.8907  -6.8477  -6.5397  -6.5336  -6.2646  -5.3491  -5.3054  -5.1497
    -5.0721  -4.8059  -4.7962  -4.7440  -4.6044  -4.6023  -4.3499  -4.3249
    -1.5643   0.1254   0.1818   0.2274   0.5725   0.9739   1.1481   1.2400
     1.3877   1.4605   1.5218   1.5601   1.6419   1.7018   1.8071   1.9387
     2.0199   2.0647   2.1021   2.3009   2.3299   2.4124

          k =-0.0000-0.1925 0.0000 ( 59226 PWs)   bands (ev):

   -69.0701 -68.9080 -41.2271 -40.4080 -40.3519 -40.3472 -40.2954 -40.2342
   -21.3197 -20.5375 -20.3542 -20.3502 -19.9883 -19.9856 -19.8144 -18.7319
   -18.7280 -18.4073 -18.3658 -18.3603 -18.2621 -18.2590 -18.0829 -18.0806
   -12.5209 -12.5040 -12.4151 -11.5877 -11.5854 -11.4389 -11.4198 -10.9332
   -10.9322  -9.9357  -9.9345  -9.6824  -9.3867  -9.3739  -9.2367  -9.2359
    -9.0482  -9.0481  -8.9170  -8.3294  -8.3282  -7.9092  -7.9037  -7.8618
    -7.8499  -7.7793  -7.6061  -7.5977  -7.0968  -7.0967  -6.9652  -6.8948
    -6.8940  -6.8543  -6.5371  -6.5357  -6.2650  -5.3268  -5.3217  -5.1501
    -5.0717  -4.8454  -4.7763  -4.7475  -4.5994  -4.5837  -4.3409  -4.3401
    -1.5687   0.1222   0.1799   0.2297   0.6809   1.0427   1.1179   1.1354
     1.3222   1.4614   1.5102   1.5204   1.5976   1.7225   1.8346   1.9455
     1.9715   2.0689   2.1407   2.2639   2.3545   2.4112

          k = 0.5000-0.8660 0.0000 ( 59292 PWs)   bands (ev):

   -69.0701 -68.9081 -41.2272 -40.4080 -40.3519 -40.3472 -40.2954 -40.2342
   -21.0636 -21.0451 -20.4792 -20.4661 -19.4346 -19.4316 -19.4140 -19.4129
   -19.0024 -18.9901 -18.3350 -18.3335 -18.3147 -18.3141 -17.8018 -17.7905
   -12.0826 -12.0806 -12.0639 -12.0626 -11.8895 -11.8767 -11.3411 -11.3292
   -10.2458 -10.2366 -10.1423 -10.1410 -10.1329 -10.1325  -8.5912  -8.5603
    -8.5587  -8.5458  -8.5445  -8.5268  -7.8747  -7.8727  -7.8640  -7.8632
    -7.8290  -7.8243  -7.7803  -7.7448  -7.5019  -7.4889  -6.6216  -6.6115
    -6.3438  -6.3378  -6.2915  -6.2898  -6.1995  -6.1906  -5.7107  -5.6879
    -5.5568  -5.5444  -4.7296  -4.7228  -4.6841  -4.6778  -3.8868  -3.8594
    -1.5356   0.1248   0.1868   0.2467   0.3415   1.0489   1.0739   1.1914
     1.4272   1.5256   1.5588   1.5870   1.6042   1.7179   1.7999   1.9311
     1.9652   2.2205   2.2516   2.2729   2.3128   2.4383

          k =-1.0000 0.0000 0.0000 ( 59292 PWs)   bands (ev):

   -69.0701 -68.9081 -41.2272 -40.4080 -40.3520 -40.3472 -40.2953 -40.2342
   -21.0816 -21.0245 -20.4766 -20.4731 -19.4342 -19.4335 -19.4127 -19.4074
   -19.0182 -18.9749 -18.3865 -18.3159 -18.3106 -18.2854 -17.7982 -17.7957
   -12.1210 -12.0741 -12.0533 -12.0383 -11.8841 -11.8822 -11.3568 -11.3149
   -10.2490 -10.2475 -10.1364 -10.1361 -10.1325 -10.1319  -8.6171  -8.5875
    -8.5572  -8.5383  -8.5224  -8.4936  -7.8802  -7.8776  -7.8680  -7.8665
    -7.8190  -7.8181  -7.7709  -7.7657  -7.5211  -7.4715  -6.6161  -6.6146
    -6.3400  -6.3384  -6.2887  -6.2837  -6.2152  -6.1774  -5.7295  -5.6709
    -5.5733  -5.5280  -4.8074  -4.6924  -4.6742  -4.6439  -3.8753  -3.8729
    -1.5544   0.1241   0.1838   0.2533   0.6445   0.9877   1.0389   1.1508
     1.3742   1.4746   1.4790   1.4935   1.6062   1.6316   1.7306   1.8330
     2.0512   2.2752   2.2785   2.3131   2.3363   2.4208

     the Fermi energy is    -0.5160 ev

!    total energy              =   -1133.74443411 Ry

     total all-electron energy =     -6753.420137 Ry
     estimated scf accuracy    <       0.00000008 Ry
     smearing contrib. (-TS)   =      -0.00000000 Ry
     internal energy E=F+TS    =   -1133.74443411 Ry

     The total energy is F=E-TS. E is the sum of the following terms:
     one-electron contribution =   -3990.21376972 Ry
     hartree contribution      =    2023.03323769 Ry
     xc contribution           =    -186.12811983 Ry
     ewald contribution        =    1378.94292828 Ry
     DFT-D3 Dispersion         =      -0.12180750 Ry
     one-center paw contrib.   =    -359.25690301 Ry

     total magnetization       =    10.00 Bohr mag/cell
     absolute magnetization    =    10.01 Bohr mag/cell

     convergence has been achieved in  14 iterations

     Writing output data file ./mytmp/Crdimer0.11-0.1.save/
 
     init_run     :     18.50s CPU     19.39s WALL (       1 calls)
     electrons    :    484.52s CPU    516.82s WALL (       1 calls)

     Called by init_run:
     wfcinit      :     13.68s CPU     14.19s WALL (       1 calls)
     potinit      :      1.53s CPU      1.59s WALL (       1 calls)
     hinit0       :      1.53s CPU      1.63s WALL (       1 calls)

     Called by electrons:
     c_bands      :    387.30s CPU    411.05s WALL (      14 calls)
     sum_band     :     75.06s CPU     80.35s WALL (      14 calls)
     v_of_rho     :      4.61s CPU      4.93s WALL (      15 calls)
     newd         :      9.51s CPU     12.44s WALL (      15 calls)
     PAW_pot      :      7.42s CPU      7.48s WALL (      15 calls)
     mix_rho      :      0.99s CPU      1.03s WALL (      14 calls)

     Called by c_bands:
     init_us_2    :      5.06s CPU      5.10s WALL (     870 calls)
     cegterg      :    374.96s CPU    398.64s WALL (     420 calls)

     Called by *egterg:
     cdiaghg      :     25.26s CPU     40.12s WALL (    2778 calls)
     h_psi        :    241.82s CPU    249.92s WALL (    2808 calls)
     s_psi        :     27.21s CPU     27.31s WALL (    2808 calls)
     g_psi        :      0.70s CPU      0.72s WALL (    2358 calls)

     Called by h_psi:
     h_psi:calbec :     27.68s CPU     28.36s WALL (    2808 calls)
     vloc_psi     :    184.30s CPU    191.55s WALL (    2808 calls)
     add_vuspsi   :     27.74s CPU     27.89s WALL (    2808 calls)

     General routines
     calbec       :     37.00s CPU     37.86s WALL (    3228 calls)
     fft          :      4.12s CPU      4.82s WALL (     369 calls)
     ffts         :      0.11s CPU      0.12s WALL (      58 calls)
     fftw         :    189.72s CPU    197.29s WALL (  247756 calls)
     interpolate  :      0.41s CPU      0.44s WALL (      30 calls)
 
     Parallel routines
     fft_scatt_xy :     30.26s CPU     31.30s WALL (  248183 calls)
     fft_scatt_yz :     73.37s CPU     77.34s WALL (  248183 calls)
 
     PWSCF        :   8m25.04s CPU   9m 0.28s WALL

 
   This run was terminated on:  11:20:48  31Mar2021            

=------------------------------------------------------------------------------=
   JOB DONE.
=------------------------------------------------------------------------------=
