
     Program PWSCF v.6.7MaX starts on 31Mar2021 at 10: 3:48 

     This program is part of the open-source Quantum ESPRESSO suite
     for quantum simulation of materials; please cite
         "P. Giannozzi et al., J. Phys.:Condens. Matter 21 395502 (2009);
         "P. Giannozzi et al., J. Phys.:Condens. Matter 29 465901 (2017);
          URL http://www.quantum-espresso.org", 
     in publications or presentations arising from this work. More details at
     http://www.quantum-espresso.org/quote

     Parallel version (MPI), running on    48 processors

     MPI processes distributed on     1 nodes
     R & G space division:  proc/nbgrp/npool/nimage =      48
     Reading input from Crdimer0.1-0.1.scf.in

     Current dimensions of program PWSCF are:
     Max number of different atomic species (ntypx) = 10
     Max number of k-points (npk) =  40000
     Max angular momentum in pseudopotentials (lmaxx) =  3
     file N.pbe-n-kjpaw_psl.1.0.0.UPF: wavefunction(s)  2S renormalized
     file Cr.pbe-spn-kjpaw_psl.1.0.0.UPF: wavefunction(s)  3S 3P 3D renormalized
     file Cr.pbe-spn-kjpaw_psl.1.0.0.UPF: wavefunction(s)  3S 3P 3D renormalized

     --------------------------------------------
     Parameters for DFT-D3 Dispersion Correction:
     --------------------------------------------
       Reference C6 values for interpolation: 

         atom   Coordination number   C6
         B          0.000           214.36
         B          0.971           150.74
         B          1.944           106.23
         B          2.913            62.89
         B          4.586            56.06
         N          0.000            50.54
         N          0.994            44.25
         N          2.014            39.35
         N          2.990            31.16
         Cr1        0.000          1381.48
         Cr1        1.827           571.38
         Cr1       10.619           306.69
         Cr2        0.000          1381.48
         Cr2        1.827           571.38
         Cr2       10.619           306.69

       Values used:

         atom   Coordination number  R0_AB[au]  C6      C8
         B          3.336            3.039     62.89   2505.98
         B          3.335            3.039     62.89   2506.01
         B          3.370            3.039     62.87   2505.07
         B          3.335            3.039     62.89   2506.00
         B          3.355            3.039     62.88   2505.51
         B          3.336            3.039     62.89   2505.98
         N          3.134            2.478     31.22    688.70
         N          3.134            2.478     31.22    688.70
         N          3.168            2.478     31.21    688.42
         N          3.135            2.478     31.22    688.69
         N          3.139            2.478     31.22    688.65
         N          3.134            2.478     31.22    688.70
         N          3.136            2.478     31.22    688.68
         N          3.134            2.478     31.22    688.70
         N          3.138            2.478     31.22    688.66
         B          3.335            3.039     62.89   2506.00
         B          3.335            3.039     62.89   2506.01
         B          3.336            3.039     62.89   2505.98
         B          3.355            3.039     62.88   2505.51
         B          3.336            3.039     62.89   2505.98
         B          3.335            3.039     62.89   2506.00
         N          3.136            2.478     31.22    688.68
         B          3.335            3.039     62.89   2506.01
         B          3.336            3.039     62.89   2505.99
         B          3.345            3.039     62.89   2505.77
         N          3.134            2.478     31.22    688.70
         N          3.134            2.478     31.22    688.70
         N          3.135            2.478     31.22    688.69
         N          3.135            2.478     31.22    688.69
         N          3.168            2.478     31.21    688.42
         N          3.135            2.478     31.22    688.69
         B          3.345            3.039     62.89   2505.77
         Cr1        1.098            3.252    608.72  56178.24
         Cr2        1.098            3.252    608.72  56178.24

         Molecular C6 ( Ry / a.u.^6 ) =     68848.68


     Subspace diagonalization in iterative solution of the eigenvalue problem:
     one sub-group per band group will be used
     scalapack distributed-memory algorithm (size of sub-group:  6*  6 procs)

 
     Parallelization info
     --------------------
     sticks:   dense  smooth     PW     G-vecs:    dense   smooth      PW
     Min         235      98     26                36277     9874    1408
     Max         236      99     27                36282     9883    1425
     Sum       11311    4741   1285              1741401   474235   68095
 


     bravais-lattice index     =            4
     lattice parameter (alat)  =      18.9275  a.u.
     unit-cell volume          =   10553.3021 (a.u.)^3
     number of atoms/cell      =           34
     number of atomic types    =            4
     number of electrons       =       156.00
     number of Kohn-Sham states=           94
     kinetic-energy cutoff     =      48.0000  Ry
     charge density cutoff     =     457.0000  Ry
     scf convergence threshold =      1.0E-07
     mixing beta               =       0.5000
     number of iterations used =            8  plain     mixing
     Exchange-correlation= SLA  PW   PBX  PBC
                           (   1   4   3   4   0   0   0)

     celldm(1)=  18.927497  celldm(2)=   0.000000  celldm(3)=   1.797125
     celldm(4)=   0.000000  celldm(5)=   0.000000  celldm(6)=   0.000000

     crystal axes: (cart. coord. in units of alat)
               a(1) = (   1.000000   0.000000   0.000000 )  
               a(2) = (  -0.500000   0.866025   0.000000 )  
               a(3) = (   0.000000   0.000000   1.797125 )  

     reciprocal axes: (cart. coord. in units 2 pi/alat)
               b(1) = (  1.000000  0.577350  0.000000 )  
               b(2) = (  0.000000  1.154701  0.000000 )  
               b(3) = (  0.000000  0.000000  0.556444 )  


     PseudoPot. # 1 for B  read from file:
     /home/sf05/q-e-qe-6.7MaX-Release/pseudo/B.pbe-n-kjpaw_psl.1.0.0.UPF
     MD5 check sum: d9c678ba5d3b2fd7b74e61139c9288d8
     Pseudo is Projector augmented-wave + core cor, Zval =  3.0
     Generated using "atomic" code by A. Dal Corso  v.5.1.2
     Shape of augmentation charge: PSQ
     Using radial grid of 1059 points,  4 beta functions with: 
                l(1) =   0
                l(2) =   0
                l(3) =   1
                l(4) =   1
     Q(r) pseudized with 0 coefficients 


     PseudoPot. # 2 for N  read from file:
     /home/sf05/q-e-qe-6.7MaX-Release/pseudo/N.pbe-n-kjpaw_psl.1.0.0.UPF
     MD5 check sum: e0e4e94a9c4025c5b51bd7d8793849bd
     Pseudo is Projector augmented-wave + core cor, Zval =  5.0
     Generated using "atomic" code by A. Dal Corso  v.5.1.2
     Shape of augmentation charge: PSQ
     Using radial grid of 1085 points,  4 beta functions with: 
                l(1) =   0
                l(2) =   0
                l(3) =   1
                l(4) =   1
     Q(r) pseudized with 0 coefficients 


     PseudoPot. # 3 for Cr read from file:
     /home/sf05/q-e-qe-6.7MaX-Release/pseudo/Cr.pbe-spn-kjpaw_psl.1.0.0.UPF
     MD5 check sum: 198f1a2427a48552563eee314eba32ba
     Pseudo is Projector augmented-wave + core cor, Zval = 14.0
     Generated using &quot;atomic&quot; code by A. Dal Corso  v.6.3
     Shape of augmentation charge: PSQ
     Using radial grid of 1183 points,  6 beta functions with: 
                l(1) =   0
                l(2) =   0
                l(3) =   1
                l(4) =   1
                l(5) =   2
                l(6) =   2
     Q(r) pseudized with 0 coefficients 


     PseudoPot. # 4 for Cr read from file:
     /home/sf05/q-e-qe-6.7MaX-Release/pseudo/Cr.pbe-spn-kjpaw_psl.1.0.0.UPF
     MD5 check sum: 198f1a2427a48552563eee314eba32ba
     Pseudo is Projector augmented-wave + core cor, Zval = 14.0
     Generated using &quot;atomic&quot; code by A. Dal Corso  v.6.3
     Shape of augmentation charge: PSQ
     Using radial grid of 1183 points,  6 beta functions with: 
                l(1) =   0
                l(2) =   0
                l(3) =   1
                l(4) =   1
                l(5) =   2
                l(6) =   2
     Q(r) pseudized with 0 coefficients 


     atomic species   valence    mass     pseudopotential
        B              3.00    10.81100     B ( 1.00)
        N              5.00    14.00674     N ( 1.00)
        Cr1           14.00    51.99610     Cr( 1.00)
        Cr2           14.00    51.99610     Cr( 1.00)

     Starting magnetic structure 
     atomic species   magnetization
        B            0.000
        N            0.000
        Cr1          1.000
        Cr2          1.000

     No symmetry found



   Cartesian axes

     site n.     atom                  positions (alat units)
         1           B   tau(   1) = (  -0.1250000   0.2165064   0.8985623  )
         2           B   tau(   2) = (   0.3750000   0.6495191   0.8985623  )
         3           B   tau(   3) = (   0.2500000   0.0000000   0.8985623  )
         4           B   tau(   4) = (   0.7500000   0.0000000   0.8985623  )
         5           B   tau(   5) = (   0.1250000   0.2165064   0.8985623  )
         6           B   tau(   6) = (  -0.3750000   0.6495191   0.8985623  )
         7           N   tau(   7) = (   0.7500005   0.2886748   0.8985623  )
         8           N   tau(   8) = (   0.3750005   0.5051812   0.8985623  )
         9           N   tau(   9) = (   0.3750005   0.0721685   0.8985623  )
        10           N   tau(  10) = (   0.6250005   0.0721685   0.8985623  )
        11           N   tau(  11) = (   0.2500005   0.2886748   0.8985623  )
        12           N   tau(  12) = (   0.6250005   0.5051812   0.8985623  )
        13           N   tau(  13) = (   0.0000005   0.2886748   0.8985623  )
        14           N   tau(  14) = (   0.2500005   0.7216875   0.8985623  )
        15           N   tau(  15) = (  -0.2499995   0.7216875   0.8985623  )
        16           B   tau(  16) = (   0.0000000   0.4330127   0.8985623  )
        17           B   tau(  17) = (   0.1250000   0.6495191   0.8985623  )
        18           B   tau(  18) = (  -0.1250000   0.6495191   0.8985623  )
        19           B   tau(  19) = (   0.3750000   0.2165064   0.8985623  )
        20           B   tau(  20) = (   0.6250000   0.2165064   0.8985623  )
        21           B   tau(  21) = (   0.5000000   0.4330127   0.8985623  )
        22           N   tau(  22) = (   0.5000005   0.2886748   0.8985623  )
        23           B   tau(  23) = (  -0.2500000   0.4330127   0.8985623  )
        24           B   tau(  24) = (   0.2500000   0.4330127   0.8985623  )
        25           B   tau(  25) = (   0.5000000   0.0000000   0.8985623  )
        26           N   tau(  26) = (  -0.1249995   0.5051812   0.8985623  )
        27           N   tau(  27) = (   0.1250005   0.5051812   0.8985623  )
        28           N   tau(  28) = (   0.0000005   0.7216875   0.8985623  )
        29           N   tau(  29) = (   0.5000005   0.7216875   0.8985623  )
        30           N   tau(  30) = (   0.1250005   0.0721685   0.8985623  )
        31           N   tau(  31) = (   0.8750005   0.0721685   0.8985623  )
        32           B   tau(  32) = (   0.0000000   0.0000000   0.8985623  )
        33           Cr1 tau(  33) = (   0.3500000   0.0866025   1.2040735  )
        34           Cr2 tau(  34) = (   0.1500000   0.0866025   1.2040735  )

     number of k points=    15  Gaussian smearing, width (Ry)=  0.0000
                       cart. coord. in units 2pi/alat
        k(    1) = (   0.1666667   0.2886751   0.0000000), wk =   0.0740741
        k(    2) = (   0.1666667  -0.4811252   0.0000000), wk =   0.0740741
        k(    3) = (   0.1666667  -0.0962250   0.0000000), wk =   0.0740741
        k(    4) = (  -0.5000000  -0.8660254   0.0000000), wk =   0.0370370
        k(    5) = (  -0.1666667   0.2886751   0.0000000), wk =   0.0740741
        k(    6) = (   0.3333333   0.0000000   0.0000000), wk =   0.0740741
        k(    7) = (  -0.1666667  -0.4811252   0.0000000), wk =   0.0740741
        k(    8) = (   0.5000000  -0.0962250   0.0000000), wk =   0.0740741
        k(    9) = (  -0.3333333  -0.3849002   0.0000000), wk =   0.0740741
        k(   10) = (   0.5000000   0.0962250   0.0000000), wk =   0.0740741
        k(   11) = (  -0.3333333   0.3849002   0.0000000), wk =   0.0740741
        k(   12) = (  -0.1666667  -0.0962250   0.0000000), wk =   0.0740741
        k(   13) = (  -0.0000000  -0.1924501   0.0000000), wk =   0.0740741
        k(   14) = (   0.5000000  -0.8660254   0.0000000), wk =   0.0370370
        k(   15) = (  -1.0000000   0.0000000   0.0000000), wk =   0.0370370

     Dense  grid:  1741401 G-vectors     FFT dimensions: ( 135, 135, 240)

     Smooth grid:   474235 G-vectors     FFT dimensions: (  90,  90, 160)

     Estimated max dynamical RAM per process >     218.62 MB

     Estimated total dynamical RAM >      10.25 GB
     Generating pointlists ...
     new r_m :   0.0595 (alat units)  1.1269 (a.u.) for type    1
     new r_m :   0.0595 (alat units)  1.1269 (a.u.) for type    2
     new r_m :   0.0825 (alat units)  1.5615 (a.u.) for type    3
     new r_m :   0.0825 (alat units)  1.5615 (a.u.) for type    4

     Initial potential from superposition of free atoms

     starting charge  155.99382, renormalised to  156.00000

     negative rho (up, down):  6.884E-03 4.655E-04
     Starting wfcs are  148 randomized atomic wfcs
     Checking if some PAW data can be deallocated... 

     total cpu time spent up to now is       20.2 secs

     Self-consistent Calculation

     iteration #  1     ecut=    48.00 Ry     beta= 0.50
     Davidson diagonalization with overlap
     ethr =  1.00E-02,  avg # of iterations =  5.0

     negative rho (up, down):  5.314E-01 2.891E-03

     total cpu time spent up to now is       63.3 secs

     total energy              =   -1128.26684251 Ry
     estimated scf accuracy    <      32.16894905 Ry

     total magnetization       =    12.00 Bohr mag/cell
     absolute magnetization    =    16.12 Bohr mag/cell

     iteration #  2     ecut=    48.00 Ry     beta= 0.50
     Davidson diagonalization with overlap
     ethr =  1.00E-02,  avg # of iterations =  2.4

     negative rho (up, down):  1.015E+00 1.769E-02

     total cpu time spent up to now is       96.2 secs

     total energy              =   -1127.16689847 Ry
     estimated scf accuracy    <      24.21008110 Ry

     total magnetization       =     5.85 Bohr mag/cell
     absolute magnetization    =     6.70 Bohr mag/cell

     iteration #  3     ecut=    48.00 Ry     beta= 0.50
     Davidson diagonalization with overlap
     ethr =  1.00E-02,  avg # of iterations =  5.8

     negative rho (up, down):  1.373E+00 6.948E-02

     total cpu time spent up to now is      139.5 secs

     total energy              =   -1128.14575732 Ry
     estimated scf accuracy    <      57.22142073 Ry

     total magnetization       =     7.56 Bohr mag/cell
     absolute magnetization    =     7.85 Bohr mag/cell

     iteration #  4     ecut=    48.00 Ry     beta= 0.50
     Davidson diagonalization with overlap
     ethr =  1.00E-02,  avg # of iterations =  2.0

     negative rho (up, down):  7.965E-01 3.409E-02

     total cpu time spent up to now is      169.4 secs

     total energy              =   -1133.24554484 Ry
     estimated scf accuracy    <       2.45007917 Ry

     total magnetization       =    10.44 Bohr mag/cell
     absolute magnetization    =    10.68 Bohr mag/cell

     iteration #  5     ecut=    48.00 Ry     beta= 0.50
     Davidson diagonalization with overlap
     ethr =  1.57E-03,  avg # of iterations =  7.0

     negative rho (up, down):  2.345E-01 1.797E-02

     total cpu time spent up to now is      204.7 secs

     total energy              =   -1133.44308615 Ry
     estimated scf accuracy    <       1.37269936 Ry

     total magnetization       =    10.00 Bohr mag/cell
     absolute magnetization    =    10.13 Bohr mag/cell

     iteration #  6     ecut=    48.00 Ry     beta= 0.50
     Davidson diagonalization with overlap
     ethr =  8.80E-04,  avg # of iterations =  6.6

     negative rho (up, down):  9.708E-03 1.121E-02

     total cpu time spent up to now is      239.7 secs

     total energy              =   -1133.49828273 Ry
     estimated scf accuracy    <       0.76997989 Ry

     total magnetization       =    10.00 Bohr mag/cell
     absolute magnetization    =    10.03 Bohr mag/cell

     iteration #  7     ecut=    48.00 Ry     beta= 0.50
     Davidson diagonalization with overlap
     ethr =  4.94E-04,  avg # of iterations =  7.3

     negative rho (up, down):  7.951E-03 8.740E-03

     total cpu time spent up to now is      275.9 secs

     total energy              =   -1133.62507633 Ry
     estimated scf accuracy    <       0.19385603 Ry

     total magnetization       =    10.00 Bohr mag/cell
     absolute magnetization    =    10.07 Bohr mag/cell

     iteration #  8     ecut=    48.00 Ry     beta= 0.50
     Davidson diagonalization with overlap
     ethr =  1.24E-04,  avg # of iterations =  8.2

     negative rho (up, down):  1.951E-02 6.077E-03

     total cpu time spent up to now is      311.7 secs

     total energy              =   -1133.62570566 Ry
     estimated scf accuracy    <       0.05581645 Ry

     total magnetization       =    10.00 Bohr mag/cell
     absolute magnetization    =    10.04 Bohr mag/cell

     iteration #  9     ecut=    48.00 Ry     beta= 0.50
     Davidson diagonalization with overlap
     ethr =  3.58E-05,  avg # of iterations =  8.3

     negative rho (up, down):  1.733E-02 4.325E-03

     total cpu time spent up to now is      349.5 secs

     total energy              =   -1133.62877002 Ry
     estimated scf accuracy    <       0.01261805 Ry

     total magnetization       =    10.00 Bohr mag/cell
     absolute magnetization    =    10.03 Bohr mag/cell

     iteration # 10     ecut=    48.00 Ry     beta= 0.50
     Davidson diagonalization with overlap
     ethr =  8.09E-06,  avg # of iterations =  9.2

     negative rho (up, down):  5.486E-03 3.880E-03

     total cpu time spent up to now is      391.6 secs

     total energy              =   -1133.63222112 Ry
     estimated scf accuracy    <       0.00309224 Ry

     total magnetization       =    10.00 Bohr mag/cell
     absolute magnetization    =    10.02 Bohr mag/cell

     iteration # 11     ecut=    48.00 Ry     beta= 0.50
     Davidson diagonalization with overlap
     c_bands:  1 eigenvalues not converged
     ethr =  1.98E-06,  avg # of iterations = 12.8

     negative rho (up, down):  3.875E-03 3.925E-03

     total cpu time spent up to now is      435.5 secs

     total energy              =   -1133.63261276 Ry
     estimated scf accuracy    <       0.00107125 Ry

     total magnetization       =    10.00 Bohr mag/cell
     absolute magnetization    =    10.02 Bohr mag/cell

     iteration # 12     ecut=    48.00 Ry     beta= 0.50
     Davidson diagonalization with overlap
     ethr =  6.87E-07,  avg # of iterations =  3.2

     negative rho (up, down):  3.433E-03 3.969E-03

     total cpu time spent up to now is      466.3 secs

     total energy              =   -1133.63281676 Ry
     estimated scf accuracy    <       0.00017251 Ry

     total magnetization       =    10.00 Bohr mag/cell
     absolute magnetization    =    10.02 Bohr mag/cell

     iteration # 13     ecut=    48.00 Ry     beta= 0.50
     Davidson diagonalization with overlap
     ethr =  1.11E-07,  avg # of iterations =  4.8

     negative rho (up, down):  3.321E-03 3.955E-03

     total cpu time spent up to now is      501.6 secs

     total energy              =   -1133.63290178 Ry
     estimated scf accuracy    <       0.00005547 Ry

     total magnetization       =    10.00 Bohr mag/cell
     absolute magnetization    =    10.02 Bohr mag/cell

     iteration # 14     ecut=    48.00 Ry     beta= 0.50
     Davidson diagonalization with overlap
     ethr =  3.56E-08,  avg # of iterations =  2.7

     negative rho (up, down):  3.276E-03 3.966E-03

     total cpu time spent up to now is      532.1 secs

     total energy              =   -1133.63292663 Ry
     estimated scf accuracy    <       0.00001377 Ry

     total magnetization       =    10.00 Bohr mag/cell
     absolute magnetization    =    10.02 Bohr mag/cell

     iteration # 15     ecut=    48.00 Ry     beta= 0.50
     Davidson diagonalization with overlap
     ethr =  8.83E-09,  avg # of iterations =  4.8

     negative rho (up, down):  3.259E-03 3.974E-03

     total cpu time spent up to now is      565.6 secs

     total energy              =   -1133.63294228 Ry
     estimated scf accuracy    <       0.00000457 Ry

     total magnetization       =    10.00 Bohr mag/cell
     absolute magnetization    =    10.02 Bohr mag/cell

     iteration # 16     ecut=    48.00 Ry     beta= 0.50
     Davidson diagonalization with overlap
     ethr =  2.93E-09,  avg # of iterations =  4.0

     negative rho (up, down):  3.250E-03 3.984E-03

     total cpu time spent up to now is      598.7 secs

     total energy              =   -1133.63294767 Ry
     estimated scf accuracy    <       0.00000316 Ry

     total magnetization       =    10.00 Bohr mag/cell
     absolute magnetization    =    10.02 Bohr mag/cell

     iteration # 17     ecut=    48.00 Ry     beta= 0.50
     Davidson diagonalization with overlap
     ethr =  2.03E-09,  avg # of iterations =  4.0

     negative rho (up, down):  3.241E-03 3.982E-03

     total cpu time spent up to now is      632.7 secs

     total energy              =   -1133.63295540 Ry
     estimated scf accuracy    <       0.00000073 Ry

     total magnetization       =    10.00 Bohr mag/cell
     absolute magnetization    =    10.02 Bohr mag/cell

     iteration # 18     ecut=    48.00 Ry     beta= 0.50
     Davidson diagonalization with overlap
     ethr =  4.71E-10,  avg # of iterations =  4.3

     negative rho (up, down):  3.236E-03 3.979E-03

     total cpu time spent up to now is      667.2 secs

     total energy              =   -1133.63295789 Ry
     estimated scf accuracy    <       0.00000016 Ry

     total magnetization       =    10.00 Bohr mag/cell
     absolute magnetization    =    10.02 Bohr mag/cell

     iteration # 19     ecut=    48.00 Ry     beta= 0.50
     Davidson diagonalization with overlap
     ethr =  1.02E-10,  avg # of iterations =  4.6

     negative rho (up, down):  3.235E-03 3.974E-03
 
     Magnetic moment per site:
     atom:    1    charge:    0.8804    magn:    0.0001    constr:    0.0000
     atom:    2    charge:    0.8803    magn:    0.0001    constr:    0.0000
     atom:    3    charge:    0.8802    magn:   -0.0008    constr:    0.0000
     atom:    4    charge:    0.8804    magn:    0.0000    constr:    0.0000
     atom:    5    charge:    0.8803    magn:    0.0003    constr:    0.0000
     atom:    6    charge:    0.8802    magn:    0.0001    constr:    0.0000
     atom:    7    charge:    2.8610    magn:    0.0000    constr:    0.0000
     atom:    8    charge:    2.8609    magn:    0.0002    constr:    0.0000
     atom:    9    charge:    2.8616    magn:    0.0126    constr:    0.0000
     atom:   10    charge:    2.8609    magn:    0.0005    constr:    0.0000
     atom:   11    charge:    2.8605    magn:    0.0043    constr:    0.0000
     atom:   12    charge:    2.8610    magn:    0.0001    constr:    0.0000
     atom:   13    charge:    2.8598    magn:    0.0019    constr:    0.0000
     atom:   14    charge:    2.8599    magn:    0.0003    constr:    0.0000
     atom:   15    charge:    2.8596    magn:    0.0031    constr:    0.0000
     atom:   16    charge:    0.8799    magn:    0.0002    constr:    0.0000
     atom:   17    charge:    0.8800    magn:    0.0001    constr:    0.0000
     atom:   18    charge:    0.8798    magn:    0.0001    constr:    0.0000
     atom:   19    charge:    0.8798    magn:    0.0003    constr:    0.0000
     atom:   20    charge:    0.8798    magn:    0.0001    constr:    0.0000
     atom:   21    charge:    0.8797    magn:    0.0002    constr:    0.0000
     atom:   22    charge:    2.8611    magn:    0.0019    constr:    0.0000
     atom:   23    charge:    0.8799    magn:    0.0001    constr:    0.0000
     atom:   24    charge:    0.8798    magn:    0.0002    constr:    0.0000
     atom:   25    charge:    0.8801    magn:    0.0005    constr:    0.0000
     atom:   26    charge:    2.8598    magn:    0.0001    constr:    0.0000
     atom:   27    charge:    2.8597    magn:    0.0002    constr:    0.0000
     atom:   28    charge:    2.8596    magn:    0.0012    constr:    0.0000
     atom:   29    charge:    2.8594    magn:    0.0012    constr:    0.0000
     atom:   30    charge:    2.8602    magn:    0.0126    constr:    0.0000
     atom:   31    charge:    2.8595    magn:    0.0005    constr:    0.0000
     atom:   32    charge:    0.8804    magn:    0.0005    constr:    0.0000
     atom:   33    charge:   11.2279    magn:    3.3866    constr:    0.0000
     atom:   34    charge:   11.2278    magn:    3.3867    constr:    0.0000

     total cpu time spent up to now is      702.7 secs

     End of self-consistent calculation

 ------ SPIN UP ------------


          k = 0.1667 0.2887 0.0000 ( 59267 PWs)   bands (ev):

   -73.6266 -73.2388 -46.0164 -44.8819 -44.8344 -44.6410 -44.5928 -44.3300
   -21.2689 -20.6954 -20.6627 -20.1227 -20.1198 -19.6212 -19.5900 -19.1208
   -18.7322 -18.7004 -18.4746 -18.4736 -18.2175 -18.1096 -18.0901 -17.8692
   -12.5050 -12.2256 -12.2242 -11.8445 -11.8337 -11.6783 -11.2219 -11.1995
   -10.4118 -10.3883 -10.1448 -10.1275  -9.6137  -9.6043  -8.8693  -8.8457
    -8.8426  -8.7975  -8.7706  -8.6167  -8.2172  -8.1053  -8.0087  -7.8495
    -7.8476  -7.4630  -7.4535  -7.3004  -7.2863  -7.2336  -7.2214  -6.9780
    -6.9777  -6.6149  -6.5320  -6.1759  -6.1712  -5.8981  -5.4385  -5.3404
    -5.2870  -5.2203  -4.9328  -4.9236  -4.5376  -4.3788  -4.3620  -4.0131
    -4.0060  -3.9484  -3.9111  -3.0186  -2.4706  -2.3784  -1.5615  -1.5197
    -0.9986  -0.9893  -0.8812  -0.1156   0.3721   0.8544   1.0254   1.2280
     1.3431   1.4660   1.5366   1.5727   1.6080   1.8483

          k = 0.1667-0.4811 0.0000 ( 59291 PWs)   bands (ev):

   -73.6266 -73.2388 -46.0164 -44.8819 -44.8344 -44.6410 -44.5928 -44.3300
   -21.1397 -20.9333 -20.7419 -20.1814 -19.8256 -19.4873 -19.3403 -19.1936
   -19.0360 -18.7976 -18.6641 -18.5630 -18.1719 -18.1077 -17.9404 -17.7438
   -12.3695 -12.1351 -12.0640 -11.9266 -11.7069 -11.6722 -11.5727 -10.9620
   -10.9103 -10.6437 -10.5423  -9.8808  -9.7136  -9.3563  -9.1314  -8.7045
    -8.6445  -8.5729  -8.4096  -8.3933  -8.1808  -8.1358  -8.0893  -8.0649
    -7.7095  -7.6433  -7.5169  -7.4913  -7.3783  -7.1910  -7.0882  -6.8863
    -6.6424  -6.4130  -6.2114  -6.1784  -5.9867  -5.9487  -5.8039  -5.7719
    -5.4713  -5.4143  -5.2411  -5.0607  -4.4769  -4.3705  -4.1117  -4.0065
    -3.9604  -3.9128  -3.7878  -3.0155  -2.4710  -2.3779  -1.5627  -1.5199
    -0.9989  -0.9906  -0.8821  -0.1188   0.3109   0.8862   1.0391   1.1092
     1.2062   1.3032   1.5153   1.8304   1.9072   2.1233

          k = 0.1667-0.0962 0.0000 ( 59226 PWs)   bands (ev):

   -73.6266 -73.2388 -46.0164 -44.8819 -44.8344 -44.6410 -44.5928 -44.3300
   -21.3351 -20.5586 -20.3688 -20.3559 -20.0163 -19.9947 -19.8245 -18.7589
   -18.7374 -18.4022 -18.3942 -18.3712 -18.2820 -18.2814 -18.0983 -18.0877
   -12.5263 -12.5247 -12.4285 -11.6049 -11.5933 -11.4437 -11.4433 -10.9476
   -10.9425  -9.9513  -9.9450  -9.6962  -9.3953  -9.3935  -9.2506  -9.2471
    -9.0618  -9.0608  -8.9530  -8.3452  -8.3401  -7.9220  -7.9205  -7.9140
    -7.8650  -7.7908  -7.6369  -7.5956  -7.1734  -7.0979  -6.9800  -6.9108
    -6.9027  -6.8670  -6.5534  -6.5463  -6.2777  -5.3995  -5.3269  -5.1634
    -5.0854  -4.8493  -4.8336  -4.7685  -4.6253  -4.6227  -4.3874  -4.3461
    -4.0064  -3.9572  -3.9112  -3.0218  -2.4715  -2.3786  -1.5606  -1.5194
    -0.9980  -0.9884  -0.8803  -0.1113   0.4310   0.8237   1.0087   1.2250
     1.2566   1.3729   1.5783   1.5903   1.8168   1.9871

          k =-0.5000-0.8660 0.0000 ( 59292 PWs)   bands (ev):

   -73.6266 -73.2388 -46.0164 -44.8819 -44.8344 -44.6410 -44.5928 -44.3300
   -21.0882 -21.0514 -20.4946 -20.4797 -19.4532 -19.4492 -19.4270 -19.4252
   -19.0238 -18.9973 -18.3614 -18.3597 -18.3184 -18.3181 -17.8175 -17.8039
   -12.1047 -12.1008 -12.0699 -12.0673 -11.9041 -11.8877 -11.3590 -11.3372
   -10.2623 -10.2499 -10.1557 -10.1534 -10.1452 -10.1442  -8.6544  -8.5808
    -8.5796  -8.5520  -8.5506  -8.5344  -7.8910  -7.8877  -7.8780  -7.8756
    -7.8395  -7.8379  -7.8133  -7.7641  -7.5217  -7.4949  -6.6370  -6.6236
    -6.3883  -6.3857  -6.3112  -6.3058  -6.2178  -6.1991  -5.7462  -5.7046
    -5.5767  -5.5511  -4.7894  -4.7691  -4.6925  -4.6804  -4.0146  -3.9852
    -3.9255  -3.8946  -3.8649  -3.0150  -2.4707  -2.3789  -1.5610  -1.5194
    -1.0046  -0.9969  -0.8868  -0.2121   0.4050   0.8992   1.0533   1.1114
     1.4395   1.5781   1.5864   1.6036   1.7914   1.8469

          k =-0.1667 0.2887 0.0000 ( 59267 PWs)   bands (ev):

   -73.6266 -73.2388 -46.0164 -44.8819 -44.8344 -44.6410 -44.5928 -44.3300
   -21.2689 -20.6954 -20.6627 -20.1227 -20.1198 -19.6212 -19.5900 -19.1208
   -18.7321 -18.7005 -18.4746 -18.4736 -18.2175 -18.1095 -18.0902 -17.8692
   -12.5050 -12.2256 -12.2242 -11.8445 -11.8337 -11.6784 -11.2218 -11.1995
   -10.4119 -10.3883 -10.1448 -10.1275  -9.6136  -9.6043  -8.8693  -8.8457
    -8.8426  -8.7975  -8.7707  -8.6167  -8.2172  -8.1053  -8.0087  -7.8495
    -7.8475  -7.4631  -7.4535  -7.3004  -7.2863  -7.2335  -7.2214  -6.9781
    -6.9778  -6.6149  -6.5319  -6.1759  -6.1712  -5.8981  -5.4386  -5.3404
    -5.2870  -5.2202  -4.9328  -4.9236  -4.5376  -4.3788  -4.3620  -4.0131
    -4.0060  -3.9484  -3.9111  -3.0186  -2.4706  -2.3784  -1.5615  -1.5197
    -0.9986  -0.9893  -0.8812  -0.1156   0.3720   0.8544   1.0254   1.2280
     1.3431   1.4660   1.5366   1.5727   1.6080   1.8483

          k = 0.3333 0.0000 0.0000 ( 59267 PWs)   bands (ev):

   -73.6266 -73.2388 -46.0164 -44.8819 -44.8344 -44.6410 -44.5928 -44.3300
   -21.2685 -20.7096 -20.6483 -20.1332 -20.1076 -19.6364 -19.5767 -19.1230
   -18.7398 -18.6878 -18.4868 -18.4627 -18.2150 -18.1253 -18.0796 -17.8683
   -12.5039 -12.2344 -12.2162 -11.8509 -11.8297 -11.6766 -11.2311 -11.1902
   -10.4121 -10.3872 -10.1524 -10.1208  -9.6163  -9.6002  -8.8676  -8.8514
    -8.8363  -8.8100  -8.7591  -8.6177  -8.2189  -8.1313  -7.9821  -7.8505
    -7.8449  -7.4661  -7.4498  -7.3266  -7.2550  -7.2387  -7.2161  -6.9885
    -6.9686  -6.6436  -6.5095  -6.1774  -6.1690  -5.9065  -5.4386  -5.3485
    -5.2647  -5.2205  -4.9566  -4.9018  -4.5353  -4.4020  -4.3436  -4.0433
    -3.9820  -3.9564  -3.8979  -3.0181  -2.4717  -2.3786  -1.5603  -1.5194
    -1.0009  -0.9947  -0.8844  -0.1802   0.4258   0.8636   1.1632   1.1996
     1.3400   1.4791   1.5380   1.5722   1.5778   1.9976

          k =-0.1667-0.4811 0.0000 ( 59291 PWs)   bands (ev):

   -73.6266 -73.2388 -46.0164 -44.8819 -44.8344 -44.6410 -44.5928 -44.3300
   -21.1397 -20.9333 -20.7419 -20.1814 -19.8256 -19.4873 -19.3403 -19.1936
   -19.0361 -18.7976 -18.6641 -18.5630 -18.1719 -18.1077 -17.9404 -17.7438
   -12.3695 -12.1351 -12.0640 -11.9266 -11.7069 -11.6722 -11.5727 -10.9620
   -10.9103 -10.6437 -10.5423  -9.8808  -9.7136  -9.3564  -9.1314  -8.7045
    -8.6445  -8.5729  -8.4096  -8.3933  -8.1807  -8.1358  -8.0894  -8.0649
    -7.7095  -7.6433  -7.5168  -7.4913  -7.3783  -7.1909  -7.0882  -6.8863
    -6.6424  -6.4130  -6.2114  -6.1784  -5.9867  -5.9487  -5.8039  -5.7718
    -5.4713  -5.4143  -5.2411  -5.0608  -4.4769  -4.3705  -4.1117  -4.0065
    -3.9604  -3.9128  -3.7878  -3.0155  -2.4710  -2.3779  -1.5627  -1.5199
    -0.9989  -0.9906  -0.8821  -0.1188   0.3109   0.8862   1.0391   1.1092
     1.2062   1.3032   1.5153   1.8304   1.9072   2.1231

          k = 0.5000-0.0962 0.0000 ( 59291 PWs)   bands (ev):

   -73.6266 -73.2388 -46.0164 -44.8819 -44.8344 -44.6410 -44.5928 -44.3300
   -21.1372 -20.9399 -20.7377 -20.1799 -19.8250 -19.4904 -19.3441 -19.1892
   -19.0376 -18.7995 -18.6537 -18.5680 -18.1644 -18.1194 -17.9381 -17.7432
   -12.3677 -12.1360 -12.0626 -11.9305 -11.7149 -11.6624 -11.5743 -10.9625
   -10.9083 -10.6421 -10.5446  -9.8789  -9.7139  -9.3569  -9.1309  -8.6971
    -8.6452  -8.5712  -8.4165  -8.4115  -8.1792  -8.1226  -8.0985  -8.0567
    -7.7057  -7.6438  -7.5166  -7.4919  -7.3736  -7.1922  -7.0889  -6.8830
    -6.6428  -6.4250  -6.2197  -6.1778  -5.9765  -5.9483  -5.8032  -5.7758
    -5.4723  -5.4199  -5.2160  -5.0705  -4.4641  -4.3844  -4.1157  -4.0116
    -3.9520  -3.9207  -3.7794  -3.0150  -2.4713  -2.3787  -1.5611  -1.5193
    -1.0046  -0.9969  -0.8868  -0.2111   0.3958   0.8986   1.0428   1.1562
     1.2450   1.3184   1.7063   1.7974   1.9742   2.0476

          k =-0.3333-0.3849 0.0000 ( 59291 PWs)   bands (ev):

   -73.6266 -73.2388 -46.0164 -44.8819 -44.8344 -44.6410 -44.5928 -44.3300
   -21.1381 -20.9376 -20.7394 -20.1795 -19.8274 -19.4879 -19.3395 -19.1932
   -19.0398 -18.7975 -18.6552 -18.5676 -18.1657 -18.1174 -17.9383 -17.7434
   -12.3689 -12.1333 -12.0649 -11.9289 -11.7073 -11.6714 -11.5737 -10.9625
   -10.9081 -10.6417 -10.5449  -9.8793  -9.7140  -9.3567  -9.1321  -8.6996
    -8.6438  -8.5725  -8.4112  -8.4065  -8.1803  -8.1282  -8.0901  -8.0663
    -7.7058  -7.6428  -7.5210  -7.4876  -7.3714  -7.1923  -7.0895  -6.8924
    -6.6411  -6.4163  -6.2059  -6.1797  -5.9878  -5.9473  -5.8034  -5.7831
    -5.4722  -5.4132  -5.2201  -5.0706  -4.4647  -4.3821  -4.1204  -4.0059
    -3.9565  -3.9132  -3.7847  -3.0152  -2.4708  -2.3786  -1.5617  -1.5195
    -1.0024  -0.9950  -0.8852  -0.1836   0.3710   0.8935   1.0396   1.1208
     1.2185   1.3561   1.6547   1.8662   1.9295   1.9936

          k = 0.5000 0.0962 0.0000 ( 59291 PWs)   bands (ev):

   -73.6266 -73.2388 -46.0164 -44.8819 -44.8344 -44.6410 -44.5928 -44.3300
   -21.1372 -20.9399 -20.7377 -20.1799 -19.8250 -19.4904 -19.3441 -19.1892
   -19.0376 -18.7995 -18.6537 -18.5680 -18.1644 -18.1194 -17.9381 -17.7432
   -12.3676 -12.1360 -12.0626 -11.9305 -11.7149 -11.6624 -11.5743 -10.9624
   -10.9083 -10.6421 -10.5447  -9.8789  -9.7139  -9.3569  -9.1309  -8.6971
    -8.6452  -8.5713  -8.4165  -8.4115  -8.1792  -8.1226  -8.0985  -8.0566
    -7.7058  -7.6437  -7.5167  -7.4919  -7.3736  -7.1923  -7.0888  -6.8830
    -6.6427  -6.4250  -6.2197  -6.1777  -5.9765  -5.9482  -5.8033  -5.7758
    -5.4723  -5.4199  -5.2160  -5.0705  -4.4641  -4.3843  -4.1158  -4.0116
    -3.9520  -3.9207  -3.7794  -3.0150  -2.4713  -2.3787  -1.5611  -1.5193
    -1.0046  -0.9969  -0.8868  -0.2111   0.3958   0.8986   1.0429   1.1562
     1.2450   1.3184   1.7063   1.7973   1.9742   2.0476

          k =-0.3333 0.3849 0.0000 ( 59291 PWs)   bands (ev):

   -73.6266 -73.2388 -46.0164 -44.8819 -44.8344 -44.6410 -44.5928 -44.3300
   -21.1381 -20.9376 -20.7394 -20.1795 -19.8274 -19.4879 -19.3395 -19.1932
   -19.0398 -18.7975 -18.6552 -18.5676 -18.1657 -18.1174 -17.9383 -17.7435
   -12.3689 -12.1333 -12.0649 -11.9289 -11.7073 -11.6714 -11.5736 -10.9625
   -10.9081 -10.6416 -10.5449  -9.8793  -9.7139  -9.3567  -9.1321  -8.6996
    -8.6439  -8.5725  -8.4112  -8.4065  -8.1804  -8.1282  -8.0901  -8.0663
    -7.7058  -7.6428  -7.5211  -7.4876  -7.3714  -7.1922  -7.0896  -6.8924
    -6.6411  -6.4163  -6.2058  -6.1798  -5.9878  -5.9474  -5.8034  -5.7831
    -5.4721  -5.4132  -5.2201  -5.0706  -4.4647  -4.3821  -4.1204  -4.0059
    -3.9565  -3.9132  -3.7847  -3.0152  -2.4708  -2.3786  -1.5617  -1.5195
    -1.0025  -0.9950  -0.8852  -0.1836   0.3710   0.8935   1.0396   1.1208
     1.2185   1.3561   1.6546   1.8662   1.9295   1.9935

          k =-0.1667-0.0962 0.0000 ( 59226 PWs)   bands (ev):

   -73.6266 -73.2388 -46.0164 -44.8819 -44.8344 -44.6410 -44.5928 -44.3300
   -21.3351 -20.5586 -20.3688 -20.3559 -20.0163 -19.9948 -19.8245 -18.7589
   -18.7374 -18.4022 -18.3942 -18.3712 -18.2820 -18.2814 -18.0982 -18.0877
   -12.5263 -12.5247 -12.4284 -11.6049 -11.5933 -11.4437 -11.4433 -10.9476
   -10.9425  -9.9513  -9.9450  -9.6961  -9.3953  -9.3935  -9.2506  -9.2471
    -9.0618  -9.0608  -8.9530  -8.3453  -8.3402  -7.9219  -7.9205  -7.9140
    -7.8649  -7.7909  -7.6369  -7.5956  -7.1734  -7.0979  -6.9801  -6.9108
    -6.9026  -6.8670  -6.5534  -6.5463  -6.2778  -5.3995  -5.3269  -5.1633
    -5.0855  -4.8493  -4.8336  -4.7685  -4.6253  -4.6227  -4.3874  -4.3461
    -4.0064  -3.9572  -3.9112  -3.0218  -2.4715  -2.3786  -1.5606  -1.5194
    -0.9980  -0.9884  -0.8803  -0.1113   0.4310   0.8237   1.0087   1.2250
     1.2566   1.3729   1.5783   1.5903   1.8167   1.9888

          k =-0.0000-0.1925 0.0000 ( 59226 PWs)   bands (ev):

   -73.6266 -73.2388 -46.0164 -44.8819 -44.8344 -44.6410 -44.5928 -44.3300
   -21.3352 -20.5544 -20.3670 -20.3655 -20.0043 -20.0005 -19.8271 -18.7467
   -18.7466 -18.4265 -18.3796 -18.3758 -18.2746 -18.2734 -18.0965 -18.0936
   -12.5344 -12.5167 -12.4284 -11.6001 -11.5988 -11.4525 -11.4324 -10.9459
   -10.9457  -9.9483  -9.9482  -9.6959  -9.4010  -9.3868  -9.2499  -9.2495
    -9.0613  -9.0607  -8.9534  -8.3426  -8.3426  -7.9227  -7.9167  -7.9024
    -7.8661  -7.7924  -7.6297  -7.6273  -7.1376  -7.1158  -6.9791  -6.9082
    -6.9061  -6.8727  -6.5502  -6.5491  -6.2781  -5.3650  -5.3549  -5.1636
    -5.0852  -4.8910  -4.8097  -4.7754  -4.6176  -4.6103  -4.3767  -4.3561
    -4.0078  -3.9572  -3.9131  -3.0220  -2.4709  -2.3785  -1.5612  -1.5196
    -0.9973  -0.9854  -0.8787  -0.0719   0.4005   0.8197   0.9494   1.1765
     1.3010   1.3866   1.5773   1.6045   1.7432   1.9925

          k = 0.5000-0.8660 0.0000 ( 59292 PWs)   bands (ev):

   -73.6266 -73.2388 -46.0164 -44.8819 -44.8344 -44.6410 -44.5928 -44.3300
   -21.0882 -21.0514 -20.4946 -20.4797 -19.4532 -19.4492 -19.4270 -19.4252
   -19.0238 -18.9974 -18.3614 -18.3596 -18.3184 -18.3182 -17.8175 -17.8039
   -12.1047 -12.1008 -12.0699 -12.0674 -11.9040 -11.8877 -11.3589 -11.3372
   -10.2623 -10.2499 -10.1557 -10.1534 -10.1452 -10.1442  -8.6544  -8.5808
    -8.5795  -8.5520  -8.5506  -8.5344  -7.8910  -7.8876  -7.8780  -7.8756
    -7.8396  -7.8380  -7.8133  -7.7641  -7.5218  -7.4950  -6.6369  -6.6235
    -6.3882  -6.3857  -6.3112  -6.3058  -6.2176  -6.1991  -5.7462  -5.7046
    -5.5768  -5.5512  -4.7894  -4.7691  -4.6925  -4.6804  -4.0146  -3.9852
    -3.9256  -3.8946  -3.8650  -3.0150  -2.4707  -2.3789  -1.5610  -1.5194
    -1.0046  -0.9969  -0.8868  -0.2121   0.4050   0.8992   1.0533   1.1114
     1.4395   1.5780   1.5864   1.6036   1.7915   1.8468

          k =-1.0000 0.0000 0.0000 ( 59292 PWs)   bands (ev):

   -73.6266 -73.2388 -46.0165 -44.8819 -44.8344 -44.6410 -44.5928 -44.3300
   -21.1003 -21.0368 -20.4893 -20.4892 -19.4512 -19.4501 -19.4260 -19.4224
   -19.0345 -18.9870 -18.4079 -18.3305 -18.3245 -18.2961 -17.8127 -17.8101
   -12.1369 -12.0880 -12.0655 -12.0495 -11.8980 -11.8938 -11.3703 -11.3271
   -10.2624 -10.2617 -10.1494 -10.1492 -10.1451 -10.1450  -8.6729  -8.6039
    -8.5714  -8.5504  -8.5336  -8.5078  -7.8933  -7.8929  -7.8805  -7.8800
    -7.8324  -7.8315  -7.7985  -7.7930  -7.5353  -7.4831  -6.6306  -6.6275
    -6.3930  -6.3697  -6.3135  -6.3011  -6.2291  -6.1899  -5.7600  -5.6902
    -5.5884  -5.5396  -4.8615  -4.7297  -4.6974  -4.6550  -4.0072  -3.9688
    -3.9215  -3.8939  -3.8920  -3.0156  -2.4711  -2.3775  -1.5630  -1.5201
    -0.9973  -0.9882  -0.8806  -0.0816   0.2844   0.8846   1.0720   1.1030
     1.1719   1.5271   1.6080   1.6125   1.6471   1.8680

 ------ SPIN DOWN ----------


          k = 0.1667 0.2887 0.0000 ( 59267 PWs)   bands (ev):

   -69.5278 -69.1201 -42.1331 -40.7519 -40.6989 -40.4976 -40.4449 -40.3757
   -21.2641 -20.6888 -20.6603 -20.1179 -20.1154 -19.6146 -19.5877 -19.1158
   -18.7233 -18.6980 -18.4699 -18.4690 -18.2111 -18.1044 -18.0880 -17.8645
   -12.5026 -12.2230 -12.2216 -11.8418 -11.8319 -11.6761 -11.2183 -11.1977
   -10.4088 -10.3857 -10.1406 -10.1258  -9.6105  -9.6021  -8.8472  -8.8422
    -8.8350  -8.7936  -8.7693  -8.6141  -8.2146  -8.0720  -8.0012  -7.8466
    -7.8449  -7.4585  -7.4508  -7.2775  -7.2694  -7.2300  -7.2195  -6.9753
    -6.9751  -6.5864  -6.5255  -6.1726  -6.1686  -5.8764  -5.4351  -5.3082
    -5.2695  -5.2172  -4.9133  -4.9087  -4.5115  -4.3624  -4.3423  -3.9837
    -1.5379  -0.5233  -0.4843  -0.4436   0.6121   0.8468   1.0372   1.1342
     1.2522   1.2785   1.4460   1.4991   1.5280   1.5715   1.7201   1.9465
     2.0827   2.1268   2.2351   2.2670   2.3357   2.4517

          k = 0.1667-0.4811 0.0000 ( 59291 PWs)   bands (ev):

   -69.5278 -69.1201 -42.1331 -40.7519 -40.6989 -40.4976 -40.4449 -40.3757
   -21.1342 -20.9294 -20.7377 -20.1767 -19.8209 -19.4826 -19.3349 -19.1892
   -19.0310 -18.7934 -18.6573 -18.5596 -18.1644 -18.1053 -17.9360 -17.7389
   -12.3670 -12.1324 -12.0618 -11.9243 -11.7038 -11.6704 -11.5703 -10.9592
   -10.9073 -10.6410 -10.5399  -9.8775  -9.7110  -9.3531  -9.1286  -8.6712
    -8.6414  -8.5697  -8.4070  -8.3778  -8.1782  -8.1194  -8.0855  -8.0633
    -7.7062  -7.6406  -7.5135  -7.4895  -7.3573  -7.1876  -7.0854  -6.8657
    -6.6387  -6.3934  -6.1866  -6.1754  -5.9717  -5.9453  -5.8008  -5.7514
    -5.4684  -5.3986  -5.2091  -5.0496  -4.4455  -4.3578  -4.0922  -3.7722
    -1.5309  -0.5245  -0.4821  -0.4390   0.6021   0.8116   1.0263   1.0677
     1.1600   1.2316   1.3168   1.3395   1.6445   1.8168   1.9613   2.0710
     2.1167   2.2252   2.2444   2.2787   2.3238   2.3625

          k = 0.1667-0.0962 0.0000 ( 59226 PWs)   bands (ev):

   -69.5278 -69.1201 -42.1331 -40.7519 -40.6988 -40.4976 -40.4449 -40.3757
   -21.3304 -20.5530 -20.3641 -20.3526 -20.0098 -19.9915 -19.8210 -18.7511
   -18.7336 -18.3941 -18.3883 -18.3679 -18.2783 -18.2775 -18.0939 -18.0846
   -12.5239 -12.5223 -12.4260 -11.6020 -11.5914 -11.4410 -11.4406 -10.9445
   -10.9401  -9.9480  -9.9431  -9.6930  -9.3925  -9.3908  -9.2473  -9.2441
    -9.0592  -9.0583  -8.9281  -8.3416  -8.3370  -7.9188  -7.9174  -7.8833
    -7.8611  -7.7882  -7.6163  -7.5853  -7.1407  -7.0886  -6.9769  -6.9076
    -6.9005  -6.8563  -6.5500  -6.5440  -6.2749  -5.3607  -5.3147  -5.1601
    -5.0822  -4.8183  -4.8082  -4.7534  -4.6116  -4.6100  -4.3593  -4.3339
    -1.5449  -0.5224  -0.4866  -0.4479   0.6269   0.7936   1.0427   1.1618
     1.2823   1.3331   1.3524   1.5363   1.5977   1.6460   1.7991   1.9239
     2.0281   2.0780   2.1173   2.2874   2.3322   2.3779

          k =-0.5000-0.8660 0.0000 ( 59292 PWs)   bands (ev):

   -69.5278 -69.1201 -42.1331 -40.7519 -40.6989 -40.4976 -40.4449 -40.3757
   -21.0810 -21.0490 -20.4895 -20.4764 -19.4451 -19.4429 -19.4240 -19.4226
   -19.0169 -18.9954 -18.3526 -18.3514 -18.3172 -18.3167 -17.8117 -17.8004
   -12.1003 -12.0975 -12.0686 -12.0661 -11.9012 -11.8862 -11.3557 -11.3353
   -10.2583 -10.2479 -10.1521 -10.1505 -10.1428 -10.1421  -8.6124  -8.5761
    -8.5751  -8.5507  -8.5494  -8.5274  -7.8867  -7.8840  -7.8756  -7.8734
    -7.8365  -7.8338  -7.7906  -7.7541  -7.5178  -7.4937  -6.6327  -6.6215
    -6.3527  -6.3513  -6.3010  -6.2980  -6.2136  -6.1969  -5.7244  -5.6927
    -5.5719  -5.5497  -4.7520  -4.7382  -4.6856  -4.6776  -3.8963  -3.8687
    -1.5182  -0.5233  -0.4799  -0.4417   0.4085   0.8421   1.0258   1.0625
     1.2015   1.4366   1.4666   1.5767   1.5927   1.6690   1.7266   1.9286
     1.9392   2.2163   2.2316   2.2832   2.3340   2.4590

          k =-0.1667 0.2887 0.0000 ( 59267 PWs)   bands (ev):

   -69.5278 -69.1201 -42.1331 -40.7519 -40.6989 -40.4976 -40.4449 -40.3757
   -21.2641 -20.6888 -20.6603 -20.1179 -20.1154 -19.6145 -19.5877 -19.1158
   -18.7233 -18.6981 -18.4699 -18.4690 -18.2111 -18.1044 -18.0880 -17.8646
   -12.5026 -12.2230 -12.2216 -11.8418 -11.8319 -11.6761 -11.2183 -11.1977
   -10.4088 -10.3857 -10.1407 -10.1258  -9.6104  -9.6021  -8.8472  -8.8422
    -8.8350  -8.7936  -8.7693  -8.6141  -8.2147  -8.0720  -8.0012  -7.8466
    -7.8449  -7.4585  -7.4508  -7.2775  -7.2694  -7.2299  -7.2195  -6.9754
    -6.9751  -6.5864  -6.5255  -6.1725  -6.1686  -5.8763  -5.4352  -5.3083
    -5.2695  -5.2171  -4.9133  -4.9087  -4.5115  -4.3624  -4.3423  -3.9837
    -1.5379  -0.5233  -0.4843  -0.4436   0.6121   0.8468   1.0372   1.1342
     1.2522   1.2785   1.4460   1.4991   1.5280   1.5715   1.7201   1.9465
     2.0827   2.1267   2.2351   2.2669   2.3358   2.4513

          k = 0.3333 0.0000 0.0000 ( 59267 PWs)   bands (ev):

   -69.5278 -69.1201 -42.1331 -40.7519 -40.6989 -40.4976 -40.4449 -40.3757
   -21.2637 -20.7024 -20.6465 -20.1275 -20.1045 -19.6290 -19.5748 -19.1177
   -18.7314 -18.6858 -18.4807 -18.4593 -18.2087 -18.1193 -18.0777 -17.8638
   -12.5014 -12.2314 -12.2139 -11.8482 -11.8277 -11.6745 -11.2273 -11.1886
   -10.4091 -10.3847 -10.1483 -10.1190  -9.6132  -9.5981  -8.8476  -8.8440
    -8.8309  -8.8059  -8.7580  -8.6150  -8.2161  -8.0950  -7.9780  -7.8474
    -7.8426  -7.4615  -7.4472  -7.2980  -7.2455  -7.2350  -7.2143  -6.9849
    -6.9667  -6.6107  -6.5052  -6.1741  -6.1665  -5.8811  -5.4350  -5.3167
    -5.2533  -5.2174  -4.9329  -4.8900  -4.5089  -4.3822  -4.3292  -3.9825
    -1.5296  -0.5221  -0.4817  -0.4455   0.4777   0.7853   1.0618   1.2152
     1.3208   1.4109   1.4508   1.4988   1.5362   1.5691   1.6240   1.9365
     2.0617   2.2071   2.2758   2.2836   2.3166   2.4357

          k =-0.1667-0.4811 0.0000 ( 59291 PWs)   bands (ev):

   -69.5278 -69.1201 -42.1331 -40.7519 -40.6989 -40.4976 -40.4449 -40.3757
   -21.1342 -20.9294 -20.7377 -20.1767 -19.8209 -19.4826 -19.3349 -19.1892
   -19.0310 -18.7934 -18.6573 -18.5596 -18.1644 -18.1053 -17.9360 -17.7389
   -12.3670 -12.1324 -12.0618 -11.9243 -11.7038 -11.6704 -11.5703 -10.9592
   -10.9073 -10.6410 -10.5398  -9.8774  -9.7110  -9.3532  -9.1287  -8.6712
    -8.6414  -8.5697  -8.4070  -8.3778  -8.1782  -8.1194  -8.0856  -8.0633
    -7.7062  -7.6406  -7.5134  -7.4895  -7.3573  -7.1876  -7.0854  -6.8657
    -6.6387  -6.3934  -6.1866  -6.1754  -5.9717  -5.9452  -5.8007  -5.7514
    -5.4684  -5.3986  -5.2091  -5.0496  -4.4454  -4.3578  -4.0922  -3.7723
    -1.5309  -0.5245  -0.4821  -0.4390   0.6020   0.8117   1.0263   1.0677
     1.1600   1.2316   1.3168   1.3396   1.6445   1.8169   1.9612   2.0710
     2.1168   2.2251   2.2444   2.2788   2.3237   2.3623

          k = 0.5000-0.0962 0.0000 ( 59291 PWs)   bands (ev):

   -69.5278 -69.1201 -42.1331 -40.7519 -40.6989 -40.4976 -40.4449 -40.3757
   -21.1320 -20.9351 -20.7340 -20.1754 -19.8205 -19.4850 -19.3385 -19.1854
   -19.0323 -18.7950 -18.6486 -18.5639 -18.1573 -18.1160 -17.9341 -17.7385
   -12.3652 -12.1333 -12.0604 -11.9279 -11.7117 -11.6610 -11.5717 -10.9597
   -10.9054 -10.6395 -10.5420  -9.8758  -9.7113  -9.3537  -9.1282  -8.6659
    -8.6419  -8.5681  -8.4109  -8.3927  -8.1768  -8.1100  -8.0942  -8.0554
    -7.7029  -7.6410  -7.5132  -7.4901  -7.3540  -7.1887  -7.0860  -6.8639
    -6.6390  -6.4003  -6.1934  -6.1749  -5.9642  -5.9449  -5.8002  -5.7537
    -5.4693  -5.4015  -5.1936  -5.0567  -4.4352  -4.3727  -4.0901  -3.7714
    -1.5182  -0.5234  -0.4799  -0.4419   0.4122   0.8063   1.0076   1.0779
     1.2255   1.3347   1.3489   1.4142   1.6525   1.8252   1.9668   2.0399
     2.1019   2.1838   2.2102   2.2845   2.3363   2.4358

          k =-0.3333-0.3849 0.0000 ( 59291 PWs)   bands (ev):

   -69.5278 -69.1201 -42.1331 -40.7519 -40.6989 -40.4976 -40.4449 -40.3757
   -21.1328 -20.9331 -20.7355 -20.1751 -19.8225 -19.4830 -19.3345 -19.1887
   -19.0342 -18.7933 -18.6498 -18.5636 -18.1585 -18.1142 -17.9342 -17.7387
   -12.3664 -12.1306 -12.0627 -11.9264 -11.7044 -11.6697 -11.5711 -10.9597
   -10.9053 -10.6391 -10.5422  -9.8761  -9.7114  -9.3535  -9.1293  -8.6676
    -8.6408  -8.5693  -8.4083  -8.3873  -8.1778  -8.1139  -8.0861  -8.0646
    -7.7030  -7.6401  -7.5173  -7.4861  -7.3528  -7.1888  -7.0866  -6.8696
    -6.6375  -6.3951  -6.1846  -6.1763  -5.9715  -5.9440  -5.8004  -5.7584
    -5.4692  -5.3975  -5.1952  -5.0572  -4.4360  -4.3711  -4.0900  -3.7717
    -1.5225  -0.5240  -0.4812  -0.4409   0.4652   0.8308   1.0252   1.0523
     1.2155   1.2518   1.3110   1.4162   1.6767   1.9157   1.9739   2.0401
     2.0984   2.1315   2.2039   2.2666   2.3541   2.3871

          k = 0.5000 0.0962 0.0000 ( 59291 PWs)   bands (ev):

   -69.5278 -69.1201 -42.1331 -40.7519 -40.6989 -40.4976 -40.4449 -40.3757
   -21.1320 -20.9351 -20.7340 -20.1754 -19.8205 -19.4850 -19.3385 -19.1854
   -19.0323 -18.7950 -18.6486 -18.5639 -18.1573 -18.1161 -17.9341 -17.7385
   -12.3652 -12.1333 -12.0604 -11.9279 -11.7117 -11.6609 -11.5717 -10.9596
   -10.9054 -10.6395 -10.5421  -9.8758  -9.7114  -9.3537  -9.1282  -8.6659
    -8.6419  -8.5682  -8.4109  -8.3927  -8.1768  -8.1100  -8.0942  -8.0554
    -7.7029  -7.6410  -7.5132  -7.4901  -7.3540  -7.1888  -7.0859  -6.8639
    -6.6390  -6.4003  -6.1934  -6.1748  -5.9642  -5.9448  -5.8003  -5.7537
    -5.4694  -5.4015  -5.1936  -5.0567  -4.4352  -4.3727  -4.0901  -3.7714
    -1.5182  -0.5234  -0.4799  -0.4419   0.4122   0.8063   1.0076   1.0779
     1.2256   1.3347   1.3488   1.4142   1.6525   1.8251   1.9668   2.0400
     2.1019   2.1838   2.2102   2.2844   2.3361   2.4349

          k =-0.3333 0.3849 0.0000 ( 59291 PWs)   bands (ev):

   -69.5278 -69.1201 -42.1331 -40.7519 -40.6989 -40.4976 -40.4449 -40.3757
   -21.1328 -20.9331 -20.7355 -20.1751 -19.8225 -19.4830 -19.3345 -19.1887
   -19.0342 -18.7933 -18.6498 -18.5636 -18.1585 -18.1142 -17.9342 -17.7387
   -12.3664 -12.1306 -12.0627 -11.9264 -11.7044 -11.6697 -11.5711 -10.9597
   -10.9053 -10.6391 -10.5422  -9.8761  -9.7113  -9.3535  -9.1293  -8.6676
    -8.6408  -8.5692  -8.4083  -8.3873  -8.1779  -8.1139  -8.0860  -8.0647
    -7.7030  -7.6401  -7.5174  -7.4860  -7.3528  -7.1887  -7.0866  -6.8696
    -6.6375  -6.3951  -6.1846  -6.1763  -5.9715  -5.9441  -5.8003  -5.7584
    -5.4691  -5.3975  -5.1952  -5.0572  -4.4361  -4.3711  -4.0900  -3.7717
    -1.5225  -0.5240  -0.4812  -0.4409   0.4652   0.8308   1.0252   1.0523
     1.2155   1.2518   1.3110   1.4162   1.6767   1.9157   1.9739   2.0402
     2.0984   2.1315   2.2039   2.2666   2.3542   2.3869

          k =-0.1667-0.0962 0.0000 ( 59226 PWs)   bands (ev):

   -69.5278 -69.1201 -42.1331 -40.7519 -40.6988 -40.4976 -40.4449 -40.3757
   -21.3304 -20.5530 -20.3641 -20.3526 -20.0098 -19.9915 -19.8210 -18.7511
   -18.7336 -18.3941 -18.3883 -18.3679 -18.2783 -18.2775 -18.0938 -18.0846
   -12.5239 -12.5223 -12.4260 -11.6020 -11.5914 -11.4410 -11.4407 -10.9445
   -10.9401  -9.9480  -9.9431  -9.6929  -9.3925  -9.3907  -9.2473  -9.2441
    -9.0592  -9.0584  -8.9281  -8.3416  -8.3370  -7.9188  -7.9173  -7.8833
    -7.8611  -7.7882  -7.6163  -7.5853  -7.1407  -7.0886  -6.9769  -6.9075
    -6.9005  -6.8563  -6.5500  -6.5439  -6.2749  -5.3607  -5.3147  -5.1600
    -5.0823  -4.8183  -4.8081  -4.7534  -4.6116  -4.6099  -4.3593  -4.3339
    -1.5449  -0.5224  -0.4866  -0.4479   0.6269   0.7936   1.0427   1.1618
     1.2823   1.3331   1.3524   1.5363   1.5978   1.6459   1.7991   1.9239
     2.0280   2.0780   2.1173   2.2874   2.3321   2.3780

          k =-0.0000-0.1925 0.0000 ( 59226 PWs)   bands (ev):

   -69.5278 -69.1201 -42.1331 -40.7519 -40.6988 -40.4976 -40.4449 -40.3757
   -21.3305 -20.5493 -20.3617 -20.3616 -19.9998 -19.9961 -19.8233 -18.7415
   -18.7406 -18.4161 -18.3759 -18.3711 -18.2723 -18.2698 -18.0922 -18.0897
   -12.5318 -12.5146 -12.4259 -11.5977 -11.5962 -11.4497 -11.4303 -10.9432
   -10.9427  -9.9459  -9.9454  -9.6927  -9.3973  -9.3849  -9.2466  -9.2464
    -9.0591  -9.0580  -8.9284  -8.3393  -8.3391  -7.9195  -7.9144  -7.8754
    -7.8611  -7.7895  -7.6096  -7.6090  -7.1148  -7.1017  -6.9760  -6.9055
    -6.9035  -6.8609  -6.5473  -6.5463  -6.2752  -5.3377  -5.3331  -5.1603
    -5.0820  -4.8526  -4.7869  -4.7576  -4.6092  -4.5946  -4.3529  -4.3450
    -1.5489  -0.5231  -0.4878  -0.4470   0.7266   0.8276   1.0245   1.1209
     1.2011   1.2699   1.4084   1.5119   1.5559   1.6663   1.8363   1.9396
     1.9513   2.0664   2.1647   2.2741   2.3296   2.3852

          k = 0.5000-0.8660 0.0000 ( 59292 PWs)   bands (ev):

   -69.5278 -69.1201 -42.1331 -40.7519 -40.6989 -40.4976 -40.4449 -40.3757
   -21.0809 -21.0491 -20.4895 -20.4764 -19.4451 -19.4429 -19.4240 -19.4226
   -19.0169 -18.9955 -18.3526 -18.3514 -18.3172 -18.3167 -17.8117 -17.8004
   -12.1002 -12.0974 -12.0686 -12.0662 -11.9011 -11.8862 -11.3556 -11.3354
   -10.2583 -10.2479 -10.1521 -10.1505 -10.1428 -10.1421  -8.6124  -8.5760
    -8.5750  -8.5508  -8.5494  -8.5274  -7.8867  -7.8840  -7.8755  -7.8734
    -7.8366  -7.8339  -7.7906  -7.7541  -7.5178  -7.4937  -6.6326  -6.6215
    -6.3527  -6.3513  -6.3010  -6.2980  -6.2134  -6.1969  -5.7244  -5.6928
    -5.5720  -5.5498  -4.7520  -4.7382  -4.6856  -4.6776  -3.8963  -3.8687
    -1.5182  -0.5233  -0.4799  -0.4417   0.4085   0.8421   1.0258   1.0625
     1.2015   1.4366   1.4665   1.5766   1.5926   1.6691   1.7266   1.9286
     1.9392   2.2164   2.2314   2.2832   2.3342   2.4589

          k =-1.0000 0.0000 0.0000 ( 59292 PWs)   bands (ev):

   -69.5278 -69.1201 -42.1331 -40.7519 -40.6988 -40.4976 -40.4449 -40.3757
   -21.0929 -21.0350 -20.4853 -20.4842 -19.4452 -19.4434 -19.4225 -19.4193
   -19.0276 -18.9852 -18.3953 -18.3265 -18.3215 -18.2957 -17.8078 -17.8056
   -12.1322 -12.0852 -12.0638 -12.0489 -11.8958 -11.8916 -11.3666 -11.3255
   -10.2587 -10.2586 -10.1465 -10.1463 -10.1428 -10.1427  -8.6303  -8.5979
    -8.5684  -8.5491  -8.5328  -8.5038  -7.8899  -7.8886  -7.8778  -7.8771
    -7.8290  -7.8289  -7.7790  -7.7750  -7.5310  -7.4820  -6.6273  -6.6248
    -6.3551  -6.3444  -6.3014  -6.2927  -6.2245  -6.1879  -5.7374  -5.6806
    -5.5833  -5.5385  -4.8143  -4.7036  -4.6846  -4.6540  -3.8860  -3.8806
    -1.5350  -0.5243  -0.4816  -0.4380   0.6896   0.8025   1.0344   1.0917
     1.1096   1.2878   1.4394   1.4682   1.5979   1.6202   1.6634   1.8845
     2.0287   2.2900   2.2935   2.3076   2.3292   2.3645

     the Fermi energy is    -0.8103 ev

!    total energy              =   -1133.63295947 Ry

     total all-electron energy =     -6753.308662 Ry
     estimated scf accuracy    <       0.00000006 Ry
     smearing contrib. (-TS)   =      -0.00000000 Ry
     internal energy E=F+TS    =   -1133.63295947 Ry

     The total energy is F=E-TS. E is the sum of the following terms:
     one-electron contribution =   -4007.03996580 Ry
     hartree contribution      =    2031.14959416 Ry
     xc contribution           =    -186.21391235 Ry
     ewald contribution        =    1387.85569289 Ry
     DFT-D3 Dispersion         =      -0.12174956 Ry
     one-center paw contrib.   =    -359.26261882 Ry

     total magnetization       =    10.00 Bohr mag/cell
     absolute magnetization    =    10.02 Bohr mag/cell

     convergence has been achieved in  19 iterations

     Writing output data file ./mytmp/Crdimer0.1-0.1.save/
 
     init_run     :     18.41s CPU     19.87s WALL (       1 calls)
     electrons    :    641.44s CPU    682.70s WALL (       1 calls)

     Called by init_run:
     wfcinit      :     13.62s CPU     14.64s WALL (       1 calls)
     potinit      :      1.52s CPU      1.59s WALL (       1 calls)
     hinit0       :      1.56s CPU      1.66s WALL (       1 calls)

     Called by electrons:
     c_bands      :    509.54s CPU    539.66s WALL (      19 calls)
     sum_band     :    101.98s CPU    108.73s WALL (      19 calls)
     v_of_rho     :      6.14s CPU      6.57s WALL (      20 calls)
     newd         :     12.65s CPU     16.60s WALL (      20 calls)
     PAW_pot      :      9.84s CPU      9.98s WALL (      20 calls)
     mix_rho      :      1.39s CPU      1.42s WALL (      19 calls)

     Called by c_bands:
     init_us_2    :      6.74s CPU      6.82s WALL (    1170 calls)
     cegterg      :    492.78s CPU    522.82s WALL (     570 calls)

     Called by *egterg:
     cdiaghg      :     33.13s CPU     52.18s WALL (    3779 calls)
     h_psi        :    313.46s CPU    323.99s WALL (    3809 calls)
     s_psi        :     36.01s CPU     36.12s WALL (    3809 calls)
     g_psi        :      0.88s CPU      0.91s WALL (    3209 calls)

     Called by h_psi:
     h_psi:calbec :     36.71s CPU     37.41s WALL (    3809 calls)
     vloc_psi     :    237.56s CPU    247.23s WALL (    3809 calls)
     add_vuspsi   :     36.53s CPU     36.69s WALL (    3809 calls)

     General routines
     calbec       :     49.48s CPU     50.36s WALL (    4379 calls)
     fft          :      5.68s CPU      6.74s WALL (     494 calls)
     ffts         :      0.15s CPU      0.15s WALL (      78 calls)
     fftw         :    246.94s CPU    256.84s WALL (  323606 calls)
     interpolate  :      0.55s CPU      0.57s WALL (      40 calls)
 
     Parallel routines
     fft_scatt_xy :     39.64s CPU     40.99s WALL (  324178 calls)
     fft_scatt_yz :     97.37s CPU    102.88s WALL (  324178 calls)
 
     PWSCF        :  11m 1.85s CPU  11m46.64s WALL

 
   This run was terminated on:  10:15:35  31Mar2021            

=------------------------------------------------------------------------------=
   JOB DONE.
=------------------------------------------------------------------------------=
