
     Program PWSCF v.6.7MaX starts on 31Mar2021 at 12:44:36 

     This program is part of the open-source Quantum ESPRESSO suite
     for quantum simulation of materials; please cite
         "P. Giannozzi et al., J. Phys.:Condens. Matter 21 395502 (2009);
         "P. Giannozzi et al., J. Phys.:Condens. Matter 29 465901 (2017);
          URL http://www.quantum-espresso.org", 
     in publications or presentations arising from this work. More details at
     http://www.quantum-espresso.org/quote

     Parallel version (MPI), running on    48 processors

     MPI processes distributed on     1 nodes
     R & G space division:  proc/nbgrp/npool/nimage =      48
     Reading input from Crdimer0.12-0.5.scf.in

     Current dimensions of program PWSCF are:
     Max number of different atomic species (ntypx) = 10
     Max number of k-points (npk) =  40000
     Max angular momentum in pseudopotentials (lmaxx) =  3
     file N.pbe-n-kjpaw_psl.1.0.0.UPF: wavefunction(s)  2S renormalized
     file Cr.pbe-spn-kjpaw_psl.1.0.0.UPF: wavefunction(s)  3S 3P 3D renormalized
     file Cr.pbe-spn-kjpaw_psl.1.0.0.UPF: wavefunction(s)  3S 3P 3D renormalized

     --------------------------------------------
     Parameters for DFT-D3 Dispersion Correction:
     --------------------------------------------
       Reference C6 values for interpolation: 

         atom   Coordination number   C6
         B          0.000           214.36
         B          0.971           150.74
         B          1.944           106.23
         B          2.913            62.89
         B          4.586            56.06
         N          0.000            50.54
         N          0.994            44.25
         N          2.014            39.35
         N          2.990            31.16
         Cr1        0.000          1381.48
         Cr1        1.827           571.38
         Cr1       10.619           306.69
         Cr2        0.000          1381.48
         Cr2        1.827           571.38
         Cr2       10.619           306.69

       Values used:

         atom   Coordination number  R0_AB[au]  C6      C8
         B          3.336            3.039     62.89   2505.99
         B          3.340            3.039     62.89   2505.88
         B          3.335            3.039     62.89   2506.01
         B          3.335            3.039     62.89   2506.01
         B          3.340            3.039     62.89   2505.88
         B          3.336            3.039     62.89   2505.99
         N          3.134            2.478     31.22    688.70
         N          3.159            2.478     31.21    688.48
         N          3.134            2.478     31.22    688.69
         N          3.134            2.478     31.22    688.70
         N          3.144            2.478     31.21    688.61
         N          3.135            2.478     31.22    688.68
         N          3.139            2.478     31.22    688.65
         N          3.135            2.478     31.22    688.69
         N          3.134            2.478     31.22    688.70
         B          3.353            3.039     62.88   2505.54
         B          3.340            3.039     62.89   2505.88
         B          3.336            3.039     62.89   2505.99
         B          3.340            3.039     62.89   2505.88
         B          3.336            3.039     62.89   2505.99
         B          3.353            3.039     62.88   2505.54
         N          3.139            2.478     31.22    688.65
         B          3.336            3.039     62.89   2506.00
         B          3.376            3.039     62.86   2504.87
         B          3.335            3.039     62.89   2506.01
         N          3.135            2.478     31.22    688.68
         N          3.159            2.478     31.21    688.48
         N          3.135            2.478     31.22    688.69
         N          3.135            2.478     31.22    688.69
         N          3.134            2.478     31.22    688.69
         N          3.134            2.478     31.22    688.70
         B          3.335            3.039     62.89   2506.01
         Cr1        1.066            3.252    629.34  58081.22
         Cr2        1.066            3.252    629.34  58081.22

         Molecular C6 ( Ry / a.u.^6 ) =     69189.68


     Subspace diagonalization in iterative solution of the eigenvalue problem:
     one sub-group per band group will be used
     scalapack distributed-memory algorithm (size of sub-group:  6*  6 procs)

 
     Parallelization info
     --------------------
     sticks:   dense  smooth     PW     G-vecs:    dense   smooth      PW
     Min         235      98     26                36277     9874    1408
     Max         236      99     27                36282     9883    1425
     Sum       11311    4741   1285              1741401   474235   68095
 


     bravais-lattice index     =            4
     lattice parameter (alat)  =      18.9275  a.u.
     unit-cell volume          =   10553.3021 (a.u.)^3
     number of atoms/cell      =           34
     number of atomic types    =            4
     number of electrons       =       156.00
     number of Kohn-Sham states=           94
     kinetic-energy cutoff     =      48.0000  Ry
     charge density cutoff     =     457.0000  Ry
     scf convergence threshold =      1.0E-07
     mixing beta               =       0.5000
     number of iterations used =            8  plain     mixing
     Exchange-correlation= SLA  PW   PBX  PBC
                           (   1   4   3   4   0   0   0)

     celldm(1)=  18.927497  celldm(2)=   0.000000  celldm(3)=   1.797125
     celldm(4)=   0.000000  celldm(5)=   0.000000  celldm(6)=   0.000000

     crystal axes: (cart. coord. in units of alat)
               a(1) = (   1.000000   0.000000   0.000000 )  
               a(2) = (  -0.500000   0.866025   0.000000 )  
               a(3) = (   0.000000   0.000000   1.797125 )  

     reciprocal axes: (cart. coord. in units 2 pi/alat)
               b(1) = (  1.000000  0.577350  0.000000 )  
               b(2) = (  0.000000  1.154701  0.000000 )  
               b(3) = (  0.000000  0.000000  0.556444 )  


     PseudoPot. # 1 for B  read from file:
     /home/sf05/q-e-qe-6.7MaX-Release/pseudo/B.pbe-n-kjpaw_psl.1.0.0.UPF
     MD5 check sum: d9c678ba5d3b2fd7b74e61139c9288d8
     Pseudo is Projector augmented-wave + core cor, Zval =  3.0
     Generated using "atomic" code by A. Dal Corso  v.5.1.2
     Shape of augmentation charge: PSQ
     Using radial grid of 1059 points,  4 beta functions with: 
                l(1) =   0
                l(2) =   0
                l(3) =   1
                l(4) =   1
     Q(r) pseudized with 0 coefficients 


     PseudoPot. # 2 for N  read from file:
     /home/sf05/q-e-qe-6.7MaX-Release/pseudo/N.pbe-n-kjpaw_psl.1.0.0.UPF
     MD5 check sum: e0e4e94a9c4025c5b51bd7d8793849bd
     Pseudo is Projector augmented-wave + core cor, Zval =  5.0
     Generated using "atomic" code by A. Dal Corso  v.5.1.2
     Shape of augmentation charge: PSQ
     Using radial grid of 1085 points,  4 beta functions with: 
                l(1) =   0
                l(2) =   0
                l(3) =   1
                l(4) =   1
     Q(r) pseudized with 0 coefficients 


     PseudoPot. # 3 for Cr read from file:
     /home/sf05/q-e-qe-6.7MaX-Release/pseudo/Cr.pbe-spn-kjpaw_psl.1.0.0.UPF
     MD5 check sum: 198f1a2427a48552563eee314eba32ba
     Pseudo is Projector augmented-wave + core cor, Zval = 14.0
     Generated using &quot;atomic&quot; code by A. Dal Corso  v.6.3
     Shape of augmentation charge: PSQ
     Using radial grid of 1183 points,  6 beta functions with: 
                l(1) =   0
                l(2) =   0
                l(3) =   1
                l(4) =   1
                l(5) =   2
                l(6) =   2
     Q(r) pseudized with 0 coefficients 


     PseudoPot. # 4 for Cr read from file:
     /home/sf05/q-e-qe-6.7MaX-Release/pseudo/Cr.pbe-spn-kjpaw_psl.1.0.0.UPF
     MD5 check sum: 198f1a2427a48552563eee314eba32ba
     Pseudo is Projector augmented-wave + core cor, Zval = 14.0
     Generated using &quot;atomic&quot; code by A. Dal Corso  v.6.3
     Shape of augmentation charge: PSQ
     Using radial grid of 1183 points,  6 beta functions with: 
                l(1) =   0
                l(2) =   0
                l(3) =   1
                l(4) =   1
                l(5) =   2
                l(6) =   2
     Q(r) pseudized with 0 coefficients 


     atomic species   valence    mass     pseudopotential
        B              3.00    10.81100     B ( 1.00)
        N              5.00    14.00674     N ( 1.00)
        Cr1           14.00    51.99610     Cr( 1.00)
        Cr2           14.00    51.99610     Cr( 1.00)

     Starting magnetic structure 
     atomic species   magnetization
        B            0.000
        N            0.000
        Cr1          1.000
        Cr2          1.000

     No symmetry found



   Cartesian axes

     site n.     atom                  positions (alat units)
         1           B   tau(   1) = (  -0.1250000   0.2165064   0.8985623  )
         2           B   tau(   2) = (   0.3750000   0.6495191   0.8985623  )
         3           B   tau(   3) = (   0.2500000   0.0000000   0.8985623  )
         4           B   tau(   4) = (   0.7500000   0.0000000   0.8985623  )
         5           B   tau(   5) = (   0.1250000   0.2165064   0.8985623  )
         6           B   tau(   6) = (  -0.3750000   0.6495191   0.8985623  )
         7           N   tau(   7) = (   0.7500005   0.2886748   0.8985623  )
         8           N   tau(   8) = (   0.3750005   0.5051812   0.8985623  )
         9           N   tau(   9) = (   0.3750005   0.0721685   0.8985623  )
        10           N   tau(  10) = (   0.6250005   0.0721685   0.8985623  )
        11           N   tau(  11) = (   0.2500005   0.2886748   0.8985623  )
        12           N   tau(  12) = (   0.6250005   0.5051812   0.8985623  )
        13           N   tau(  13) = (   0.0000005   0.2886748   0.8985623  )
        14           N   tau(  14) = (   0.2500005   0.7216875   0.8985623  )
        15           N   tau(  15) = (  -0.2499995   0.7216875   0.8985623  )
        16           B   tau(  16) = (   0.0000000   0.4330127   0.8985623  )
        17           B   tau(  17) = (   0.1250000   0.6495191   0.8985623  )
        18           B   tau(  18) = (  -0.1250000   0.6495191   0.8985623  )
        19           B   tau(  19) = (   0.3750000   0.2165064   0.8985623  )
        20           B   tau(  20) = (   0.6250000   0.2165064   0.8985623  )
        21           B   tau(  21) = (   0.5000000   0.4330127   0.8985623  )
        22           N   tau(  22) = (   0.5000005   0.2886748   0.8985623  )
        23           B   tau(  23) = (  -0.2500000   0.4330127   0.8985623  )
        24           B   tau(  24) = (   0.2500000   0.4330127   0.8985623  )
        25           B   tau(  25) = (   0.5000000   0.0000000   0.8985623  )
        26           N   tau(  26) = (  -0.1249995   0.5051812   0.8985623  )
        27           N   tau(  27) = (   0.1250005   0.5051812   0.8985623  )
        28           N   tau(  28) = (   0.0000005   0.7216875   0.8985623  )
        29           N   tau(  29) = (   0.5000005   0.7216875   0.8985623  )
        30           N   tau(  30) = (   0.1250005   0.0721685   0.8985623  )
        31           N   tau(  31) = (   0.8750005   0.0721685   0.8985623  )
        32           B   tau(  32) = (   0.0000000   0.0000000   0.8985623  )
        33           Cr1 tau(  33) = (   0.3700000   0.4330127   1.2040735  )
        34           Cr2 tau(  34) = (   0.1300000   0.4330127   1.2040735  )

     number of k points=    15  Gaussian smearing, width (Ry)=  0.0000
                       cart. coord. in units 2pi/alat
        k(    1) = (   0.1666667   0.2886751   0.0000000), wk =   0.0740741
        k(    2) = (   0.1666667  -0.4811252   0.0000000), wk =   0.0740741
        k(    3) = (   0.1666667  -0.0962250   0.0000000), wk =   0.0740741
        k(    4) = (  -0.5000000  -0.8660254   0.0000000), wk =   0.0370370
        k(    5) = (  -0.1666667   0.2886751   0.0000000), wk =   0.0740741
        k(    6) = (   0.3333333   0.0000000   0.0000000), wk =   0.0740741
        k(    7) = (  -0.1666667  -0.4811252   0.0000000), wk =   0.0740741
        k(    8) = (   0.5000000  -0.0962250   0.0000000), wk =   0.0740741
        k(    9) = (  -0.3333333  -0.3849002   0.0000000), wk =   0.0740741
        k(   10) = (   0.5000000   0.0962250   0.0000000), wk =   0.0740741
        k(   11) = (  -0.3333333   0.3849002   0.0000000), wk =   0.0740741
        k(   12) = (  -0.1666667  -0.0962250   0.0000000), wk =   0.0740741
        k(   13) = (  -0.0000000  -0.1924501   0.0000000), wk =   0.0740741
        k(   14) = (   0.5000000  -0.8660254   0.0000000), wk =   0.0370370
        k(   15) = (  -1.0000000   0.0000000   0.0000000), wk =   0.0370370

     Dense  grid:  1741401 G-vectors     FFT dimensions: ( 135, 135, 240)

     Smooth grid:   474235 G-vectors     FFT dimensions: (  90,  90, 160)

     Estimated max dynamical RAM per process >     218.62 MB

     Estimated total dynamical RAM >      10.25 GB
     Generating pointlists ...
     new r_m :   0.0595 (alat units)  1.1269 (a.u.) for type    1
     new r_m :   0.0595 (alat units)  1.1269 (a.u.) for type    2
     new r_m :   0.0990 (alat units)  1.8738 (a.u.) for type    3
     new r_m :   0.0990 (alat units)  1.8738 (a.u.) for type    4

     Initial potential from superposition of free atoms

     starting charge  155.99382, renormalised to  156.00000

     negative rho (up, down):  6.806E-03 4.655E-04
     Starting wfcs are  148 randomized atomic wfcs
     Checking if some PAW data can be deallocated... 

     total cpu time spent up to now is       20.5 secs

     Self-consistent Calculation

     iteration #  1     ecut=    48.00 Ry     beta= 0.50
     Davidson diagonalization with overlap
     ethr =  1.00E-02,  avg # of iterations =  2.9

     negative rho (up, down):  5.046E-03 2.909E-03

     total cpu time spent up to now is       63.3 secs

     total energy              =   -1130.68430744 Ry
     estimated scf accuracy    <      11.36082307 Ry

     total magnetization       =    12.00 Bohr mag/cell
     absolute magnetization    =    12.10 Bohr mag/cell

     iteration #  2     ecut=    48.00 Ry     beta= 0.50
     Davidson diagonalization with overlap
     ethr =  7.28E-03,  avg # of iterations =  2.8

     negative rho (up, down):  9.131E-03 7.553E-03

     total cpu time spent up to now is      103.6 secs

     total energy              =   -1132.96498028 Ry
     estimated scf accuracy    <       3.56264183 Ry

     total magnetization       =    10.00 Bohr mag/cell
     absolute magnetization    =    10.10 Bohr mag/cell

     iteration #  3     ecut=    48.00 Ry     beta= 0.50
     Davidson diagonalization with overlap
     ethr =  2.28E-03,  avg # of iterations =  7.7

     negative rho (up, down):  4.449E-03 3.855E-03

     total cpu time spent up to now is      146.2 secs

     total energy              =   -1133.53252589 Ry
     estimated scf accuracy    <       0.90090988 Ry

     total magnetization       =    10.00 Bohr mag/cell
     absolute magnetization    =    10.10 Bohr mag/cell

     iteration #  4     ecut=    48.00 Ry     beta= 0.50
     Davidson diagonalization with overlap
     ethr =  5.78E-04,  avg # of iterations =  6.8

     negative rho (up, down):  8.456E-03 8.291E-03

     total cpu time spent up to now is      185.6 secs

     total energy              =   -1133.72061885 Ry
     estimated scf accuracy    <       0.64252228 Ry

     total magnetization       =    10.00 Bohr mag/cell
     absolute magnetization    =    10.01 Bohr mag/cell

     iteration #  5     ecut=    48.00 Ry     beta= 0.50
     Davidson diagonalization with overlap
     ethr =  4.12E-04,  avg # of iterations =  7.0

     negative rho (up, down):  4.644E-03 4.983E-03

     total cpu time spent up to now is      225.9 secs

     total energy              =   -1133.78750836 Ry
     estimated scf accuracy    <       0.05573687 Ry

     total magnetization       =    10.00 Bohr mag/cell
     absolute magnetization    =    10.02 Bohr mag/cell

     iteration #  6     ecut=    48.00 Ry     beta= 0.50
     Davidson diagonalization with overlap
     ethr =  3.57E-05,  avg # of iterations =  9.5

     negative rho (up, down):  3.743E-03 4.148E-03

     total cpu time spent up to now is      273.1 secs

     total energy              =   -1133.79262001 Ry
     estimated scf accuracy    <       0.01421504 Ry

     total magnetization       =    10.00 Bohr mag/cell
     absolute magnetization    =    10.02 Bohr mag/cell

     iteration #  7     ecut=    48.00 Ry     beta= 0.50
     Davidson diagonalization with overlap
     ethr =  9.11E-06,  avg # of iterations =  8.4

     negative rho (up, down):  3.516E-03 4.029E-03

     total cpu time spent up to now is      317.1 secs

     total energy              =   -1133.79558490 Ry
     estimated scf accuracy    <       0.00618987 Ry

     total magnetization       =    10.00 Bohr mag/cell
     absolute magnetization    =    10.01 Bohr mag/cell

     iteration #  8     ecut=    48.00 Ry     beta= 0.50
     Davidson diagonalization with overlap
     ethr =  3.97E-06,  avg # of iterations =  6.8

     negative rho (up, down):  3.302E-03 3.930E-03

     total cpu time spent up to now is      357.2 secs

     total energy              =   -1133.79635912 Ry
     estimated scf accuracy    <       0.00110223 Ry

     total magnetization       =    10.00 Bohr mag/cell
     absolute magnetization    =    10.01 Bohr mag/cell

     iteration #  9     ecut=    48.00 Ry     beta= 0.50
     Davidson diagonalization with overlap
     ethr =  7.07E-07,  avg # of iterations =  3.6

     negative rho (up, down):  3.220E-03 3.912E-03

     total cpu time spent up to now is      391.8 secs

     total energy              =   -1133.79653837 Ry
     estimated scf accuracy    <       0.00011400 Ry

     total magnetization       =    10.00 Bohr mag/cell
     absolute magnetization    =    10.01 Bohr mag/cell

     iteration # 10     ecut=    48.00 Ry     beta= 0.50
     Davidson diagonalization with overlap
     ethr =  7.31E-08,  avg # of iterations =  4.4

     negative rho (up, down):  3.201E-03 3.919E-03

     total cpu time spent up to now is      434.9 secs

     total energy              =   -1133.79659904 Ry
     estimated scf accuracy    <       0.00001956 Ry

     total magnetization       =    10.00 Bohr mag/cell
     absolute magnetization    =    10.01 Bohr mag/cell

     iteration # 11     ecut=    48.00 Ry     beta= 0.50
     Davidson diagonalization with overlap
     ethr =  1.25E-08,  avg # of iterations =  3.6

     negative rho (up, down):  3.194E-03 3.932E-03

     total cpu time spent up to now is      471.3 secs

     total energy              =   -1133.79661568 Ry
     estimated scf accuracy    <       0.00000453 Ry

     total magnetization       =    10.00 Bohr mag/cell
     absolute magnetization    =    10.01 Bohr mag/cell

     iteration # 12     ecut=    48.00 Ry     beta= 0.50
     Davidson diagonalization with overlap
     ethr =  2.90E-09,  avg # of iterations =  4.0

     negative rho (up, down):  3.191E-03 3.941E-03

     total cpu time spent up to now is      508.0 secs

     total energy              =   -1133.79662130 Ry
     estimated scf accuracy    <       0.00000196 Ry

     total magnetization       =    10.00 Bohr mag/cell
     absolute magnetization    =    10.01 Bohr mag/cell

     iteration # 13     ecut=    48.00 Ry     beta= 0.50
     Davidson diagonalization with overlap
     ethr =  1.26E-09,  avg # of iterations =  4.0

     negative rho (up, down):  3.187E-03 3.941E-03

     total cpu time spent up to now is      544.1 secs

     total energy              =   -1133.79662358 Ry
     estimated scf accuracy    <       0.00000025 Ry

     total magnetization       =    10.00 Bohr mag/cell
     absolute magnetization    =    10.01 Bohr mag/cell

     iteration # 14     ecut=    48.00 Ry     beta= 0.50
     Davidson diagonalization with overlap
     ethr =  1.62E-10,  avg # of iterations =  4.9

     negative rho (up, down):  3.186E-03 3.940E-03
 
     Magnetic moment per site:
     atom:    1    charge:    0.8805    magn:    0.0004    constr:    0.0000
     atom:    2    charge:    0.8802    magn:    0.0009    constr:    0.0000
     atom:    3    charge:    0.8802    magn:    0.0001    constr:    0.0000
     atom:    4    charge:    0.8803    magn:    0.0001    constr:    0.0000
     atom:    5    charge:    0.8800    magn:    0.0002    constr:    0.0000
     atom:    6    charge:    0.8805    magn:    0.0001    constr:    0.0000
     atom:    7    charge:    2.8610    magn:    0.0004    constr:    0.0000
     atom:    8    charge:    2.8611    magn:    0.0079    constr:    0.0000
     atom:    9    charge:    2.8609    magn:    0.0004    constr:    0.0000
     atom:   10    charge:    2.8609    magn:    0.0002    constr:    0.0000
     atom:   11    charge:    2.8605    magn:    0.0064    constr:    0.0000
     atom:   12    charge:    2.8610    magn:    0.0008    constr:    0.0000
     atom:   13    charge:    2.8596    magn:    0.0035    constr:    0.0000
     atom:   14    charge:    2.8597    magn:    0.0011    constr:    0.0000
     atom:   15    charge:    2.8600    magn:    0.0000    constr:    0.0000
     atom:   16    charge:    0.8806    magn:   -0.0000    constr:    0.0000
     atom:   17    charge:    0.8799    magn:    0.0009    constr:    0.0000
     atom:   18    charge:    0.8801    magn:    0.0001    constr:    0.0000
     atom:   19    charge:    0.8795    magn:    0.0002    constr:    0.0000
     atom:   20    charge:    0.8799    magn:    0.0004    constr:    0.0000
     atom:   21    charge:    0.8803    magn:   -0.0000    constr:    0.0000
     atom:   22    charge:    2.8609    magn:    0.0035    constr:    0.0000
     atom:   23    charge:    0.8802    magn:    0.0001    constr:    0.0000
     atom:   24    charge:    0.8791    magn:   -0.0005    constr:    0.0000
     atom:   25    charge:    0.8799    magn:    0.0001    constr:    0.0000
     atom:   26    charge:    2.8598    magn:    0.0008    constr:    0.0000
     atom:   27    charge:    2.8600    magn:    0.0079    constr:    0.0000
     atom:   28    charge:    2.8598    magn:    0.0006    constr:    0.0000
     atom:   29    charge:    2.8596    magn:    0.0006    constr:    0.0000
     atom:   30    charge:    2.8596    magn:    0.0004    constr:    0.0000
     atom:   31    charge:    2.8596    magn:    0.0002    constr:    0.0000
     atom:   32    charge:    0.8802    magn:    0.0001    constr:    0.0000
     atom:   33    charge:   11.9899    magn:    3.8629    constr:    0.0000
     atom:   34    charge:   11.9899    magn:    3.8630    constr:    0.0000

     total cpu time spent up to now is      583.1 secs

     End of self-consistent calculation

 ------ SPIN UP ------------


          k = 0.1667 0.2887 0.0000 ( 59267 PWs)   bands (ev):

   -72.9963 -72.9367 -44.7339 -44.3695 -44.3422 -44.3403 -44.3241 -44.2965
   -21.2478 -20.6645 -20.6536 -20.1041 -20.0987 -19.5911 -19.5811 -19.1005
   -18.7013 -18.6896 -18.4573 -18.4528 -18.1962 -18.0872 -18.0781 -17.8507
   -12.4848 -12.2066 -12.2033 -11.8223 -11.8181 -11.6595 -11.1950 -11.1876
   -10.3927 -10.3686 -10.1205 -10.1139  -9.5911  -9.5877  -8.8406  -8.8258
    -8.8236  -8.7691  -8.7608  -8.5975  -8.1981  -8.0643  -8.0054  -7.8302
    -7.8281  -7.4408  -7.4367  -7.2782  -7.2649  -7.2102  -7.2063  -6.9610
    -6.9569  -6.5779  -6.5282  -6.1552  -6.1535  -5.8738  -5.4195  -5.3020
    -5.2728  -5.2012  -4.9100  -4.9053  -4.5109  -4.3584  -4.3402  -3.9814
    -3.3467  -2.5973  -2.5723  -2.2142  -1.8135  -1.7574  -1.4309  -1.4081
    -1.2048  -1.1695  -1.1184  -0.4505   0.5950   0.9376   0.9852   1.2194
     1.3236   1.4917   1.5307   1.5771   1.6176   1.8029

          k = 0.1667-0.4811 0.0000 ( 59291 PWs)   bands (ev):

   -72.9963 -72.9367 -44.7339 -44.3695 -44.3422 -44.3403 -44.3241 -44.2965
   -21.1174 -20.9132 -20.7235 -20.1617 -19.8052 -19.4675 -19.3183 -19.1754
   -19.0155 -18.7794 -18.6424 -18.5454 -18.1501 -18.0906 -17.9228 -17.7250
   -12.3489 -12.1141 -12.0455 -11.9073 -11.6823 -11.6589 -11.5535 -10.9430
   -10.8909 -10.6242 -10.5240  -9.8612  -9.6941  -9.3371  -9.1118  -8.6719
    -8.6238  -8.5539  -8.3900  -8.3702  -8.1623  -8.1211  -8.0643  -8.0505
    -7.6896  -7.6243  -7.4953  -7.4750  -7.3569  -7.1719  -7.0687  -6.8624
    -6.6231  -6.3908  -6.1818  -6.1589  -5.9712  -5.9302  -5.7847  -5.7481
    -5.4525  -5.3971  -5.2115  -5.0435  -4.4478  -4.3498  -4.0897  -3.7691
    -3.3456  -2.5971  -2.5731  -2.2109  -1.8124  -1.7575  -1.4321  -1.4087
    -1.2056  -1.1691  -1.1197  -0.4553   0.5132   0.9442   1.0083   1.1249
     1.2428   1.2970   1.4298   1.8453   1.9203   2.1267

          k = 0.1667-0.0962 0.0000 ( 59226 PWs)   bands (ev):

   -72.9963 -72.9367 -44.7339 -44.3695 -44.3421 -44.3403 -44.3241 -44.2965
   -21.3142 -20.5365 -20.3480 -20.3381 -19.9921 -19.9789 -19.8068 -18.7330
   -18.7206 -18.3767 -18.3700 -18.3551 -18.2689 -18.2634 -18.0800 -18.0709
   -12.5073 -12.5039 -12.4090 -11.5834 -11.5758 -11.4264 -11.4224 -10.9277
   -10.9240  -9.9306  -9.9266  -9.6766  -9.3755  -9.3734  -9.2313  -9.2288
    -9.0431  -9.0412  -8.9263  -8.3251  -8.3220  -7.9024  -7.9005  -7.8836
    -7.8460  -7.7714  -7.6136  -7.5793  -7.1430  -7.0859  -6.9602  -6.8900
    -6.8854  -6.8514  -6.5333  -6.5283  -6.2585  -5.3596  -5.3125  -5.1443
    -5.0663  -4.8123  -4.8040  -4.7510  -4.6142  -4.6077  -4.3595  -4.3285
    -3.3483  -2.5975  -2.5716  -2.2177  -1.8156  -1.7572  -1.4299  -1.4074
    -1.2038  -1.1701  -1.1172  -0.4454   0.6973   0.8937   0.9579   1.2194
     1.2583   1.3664   1.5893   1.6111   1.7567   1.9966

          k =-0.5000-0.8660 0.0000 ( 59292 PWs)   bands (ev):

   -72.9964 -72.9367 -44.7339 -44.3695 -44.3421 -44.3403 -44.3241 -44.2965
   -21.0549 -21.0432 -20.4728 -20.4625 -19.4303 -19.4211 -19.4116 -19.4106
   -18.9962 -18.9871 -18.3288 -18.3249 -18.3158 -18.3105 -17.7970 -17.7874
   -12.0737 -12.0699 -12.0614 -12.0589 -11.8816 -11.8714 -11.3327 -11.3255
   -10.2372 -10.2312 -10.1367 -10.1345 -10.1292 -10.1266  -8.6050  -8.5516
    -8.5500  -8.5428  -8.5405  -8.5320  -7.8669  -7.8643  -7.8595  -7.8571
    -7.8253  -7.8211  -7.7869  -7.7494  -7.4928  -7.4856  -6.6146  -6.6065
    -6.3595  -6.3434  -6.3005  -6.2943  -6.1924  -6.1872  -5.7164  -5.6940
    -5.5485  -5.5408  -4.7392  -4.7343  -4.6874  -4.6824  -3.8947  -3.8651
    -3.3405  -2.5966  -2.5733  -2.2115  -1.8139  -1.7575  -1.4298  -1.4088
    -1.2129  -1.1723  -1.1217  -0.5579   0.6574   1.0256   1.0416   1.1323
     1.4220   1.5853   1.5998   1.6091   1.7790   1.8877

          k =-0.1667 0.2887 0.0000 ( 59267 PWs)   bands (ev):

   -72.9963 -72.9367 -44.7339 -44.3695 -44.3422 -44.3403 -44.3241 -44.2965
   -21.2478 -20.6645 -20.6536 -20.1041 -20.0987 -19.5911 -19.5811 -19.1005
   -18.7013 -18.6896 -18.4573 -18.4528 -18.1962 -18.0872 -18.0782 -17.8507
   -12.4848 -12.2066 -12.2033 -11.8223 -11.8181 -11.6596 -11.1949 -11.1876
   -10.3927 -10.3686 -10.1205 -10.1140  -9.5911  -9.5877  -8.8406  -8.8257
    -8.8236  -8.7692  -8.7608  -8.5975  -8.1981  -8.0643  -8.0054  -7.8302
    -7.8280  -7.4408  -7.4367  -7.2782  -7.2649  -7.2101  -7.2063  -6.9611
    -6.9569  -6.5779  -6.5282  -6.1552  -6.1535  -5.8738  -5.4196  -5.3020
    -5.2728  -5.2011  -4.9100  -4.9053  -4.5110  -4.3584  -4.3402  -3.9814
    -3.3467  -2.5973  -2.5723  -2.2142  -1.8135  -1.7574  -1.4309  -1.4081
    -1.2048  -1.1695  -1.1184  -0.4504   0.5950   0.9376   0.9852   1.2194
     1.3235   1.4917   1.5307   1.5771   1.6176   1.8030

          k = 0.3333 0.0000 0.0000 ( 59267 PWs)   bands (ev):

   -72.9963 -72.9367 -44.7339 -44.3695 -44.3421 -44.3403 -44.3241 -44.2965
   -21.2474 -20.6861 -20.6319 -20.1064 -20.0948 -19.6137 -19.5605 -19.1025
   -18.7145 -18.6715 -18.4620 -18.4498 -18.1917 -18.1084 -18.0635 -17.8499
   -12.4846 -12.2093 -12.2003 -11.8301 -11.8125 -11.6573 -11.2105 -11.1728
   -10.3920 -10.3683 -10.1311 -10.1036  -9.5962  -9.5816  -8.8473  -8.8242
    -8.8160  -8.7887  -8.7428  -8.5983  -8.1998  -8.1030  -7.9663  -7.8293
    -7.8269  -7.4456  -7.4312  -7.2953  -7.2428  -7.2186  -7.1978  -6.9649
    -6.9545  -6.6181  -6.4945  -6.1576  -6.1503  -5.8806  -5.4195  -5.3136
    -5.2505  -5.2014  -4.9219  -4.8959  -4.5032  -4.3821  -4.3280  -3.9799
    -3.3437  -2.5966  -2.5724  -2.2147  -1.8155  -1.7573  -1.4293  -1.4081
    -1.2092  -1.1718  -1.1196  -0.5222   0.6989   0.9626   1.0977   1.2266
     1.3419   1.5094   1.5381   1.5690   1.5953   1.8886

          k =-0.1667-0.4811 0.0000 ( 59291 PWs)   bands (ev):

   -72.9963 -72.9367 -44.7339 -44.3695 -44.3422 -44.3403 -44.3241 -44.2965
   -21.1174 -20.9132 -20.7235 -20.1617 -19.8052 -19.4674 -19.3183 -19.1754
   -19.0155 -18.7794 -18.6424 -18.5454 -18.1501 -18.0906 -17.9228 -17.7250
   -12.3489 -12.1141 -12.0455 -11.9072 -11.6823 -11.6589 -11.5536 -10.9430
   -10.8909 -10.6242 -10.5240  -9.8612  -9.6941  -9.3371  -9.1118  -8.6719
    -8.6238  -8.5540  -8.3900  -8.3702  -8.1623  -8.1211  -8.0643  -8.0506
    -7.6896  -7.6243  -7.4953  -7.4750  -7.3569  -7.1719  -7.0687  -6.8624
    -6.6231  -6.3908  -6.1818  -6.1589  -5.9712  -5.9301  -5.7847  -5.7481
    -5.4525  -5.3971  -5.2115  -5.0436  -4.4478  -4.3498  -4.0897  -3.7691
    -3.3456  -2.5971  -2.5731  -2.2109  -1.8124  -1.7575  -1.4321  -1.4087
    -1.2056  -1.1691  -1.1197  -0.4553   0.5132   0.9442   1.0083   1.1249
     1.2428   1.2970   1.4299   1.8453   1.9202   2.1269

          k = 0.5000-0.0962 0.0000 ( 59291 PWs)   bands (ev):

   -72.9963 -72.9367 -44.7339 -44.3695 -44.3422 -44.3403 -44.3241 -44.2965
   -21.1148 -20.9203 -20.7190 -20.1599 -19.8053 -19.4697 -19.3235 -19.1707
   -19.0165 -18.7807 -18.6322 -18.5512 -18.1385 -18.1062 -17.9203 -17.7246
   -12.3480 -12.1146 -12.0435 -11.9111 -11.6932 -11.6454 -11.5558 -10.9431
   -10.8890 -10.6226 -10.5264  -9.8589  -9.6948  -9.3381  -9.1113  -8.6628
    -8.6244  -8.5519  -8.3990  -8.3918  -8.1605  -8.1040  -8.0767  -8.0395
    -7.6857  -7.6248  -7.4945  -7.4760  -7.3511  -7.1732  -7.0695  -6.8614
    -6.6235  -6.3999  -6.1957  -6.1584  -5.9580  -5.9294  -5.7840  -5.7505
    -5.4535  -5.3986  -5.1898  -5.0560  -4.4289  -4.3734  -4.0879  -3.7686
    -3.3407  -2.5966  -2.5734  -2.2115  -1.8144  -1.7574  -1.4298  -1.4088
    -1.2128  -1.1724  -1.1217  -0.5576   0.6485   1.0144   1.0264   1.1667
     1.2847   1.3270   1.6481   1.7817   1.9399   1.9546

          k =-0.3333-0.3849 0.0000 ( 59291 PWs)   bands (ev):

   -72.9963 -72.9367 -44.7339 -44.3695 -44.3422 -44.3403 -44.3241 -44.2965
   -21.1157 -20.9178 -20.7207 -20.1596 -19.8074 -19.4676 -19.3186 -19.1743
   -19.0192 -18.7789 -18.6337 -18.5504 -18.1410 -18.1032 -17.9204 -17.7248
   -12.3484 -12.1128 -12.0457 -11.9102 -11.6828 -11.6571 -11.5547 -10.9431
   -10.8885 -10.6220 -10.5273  -9.8597  -9.6949  -9.3374  -9.1122  -8.6657
    -8.6232  -8.5539  -8.3915  -8.3867  -8.1619  -8.1108  -8.0648  -8.0526
    -7.6859  -7.6234  -7.5007  -7.4703  -7.3496  -7.1733  -7.0701  -6.8694
    -6.6216  -6.3924  -6.1809  -6.1604  -5.9693  -5.9284  -5.7840  -5.7589
    -5.4534  -5.3934  -5.1913  -5.0562  -4.4311  -4.3711  -4.0873  -3.7688
    -3.3422  -2.5969  -2.5733  -2.2113  -1.8134  -1.7575  -1.4306  -1.4088
    -1.2104  -1.1713  -1.1211  -0.5265   0.6024   0.9978   1.0305   1.1363
     1.2363   1.3834   1.5405   1.8368   1.9165   1.9697

          k = 0.5000 0.0962 0.0000 ( 59291 PWs)   bands (ev):

   -72.9963 -72.9367 -44.7339 -44.3695 -44.3422 -44.3403 -44.3241 -44.2965
   -21.1148 -20.9203 -20.7190 -20.1599 -19.8053 -19.4697 -19.3235 -19.1707
   -19.0165 -18.7807 -18.6322 -18.5512 -18.1385 -18.1062 -17.9203 -17.7246
   -12.3480 -12.1146 -12.0435 -11.9111 -11.6932 -11.6454 -11.5558 -10.9431
   -10.8890 -10.6226 -10.5264  -9.8589  -9.6948  -9.3381  -9.1113  -8.6628
    -8.6244  -8.5520  -8.3990  -8.3918  -8.1605  -8.1040  -8.0767  -8.0395
    -7.6857  -7.6247  -7.4945  -7.4761  -7.3511  -7.1733  -7.0695  -6.8614
    -6.6234  -6.3998  -6.1957  -6.1583  -5.9581  -5.9294  -5.7841  -5.7505
    -5.4535  -5.3987  -5.1898  -5.0559  -4.4289  -4.3734  -4.0879  -3.7686
    -3.3407  -2.5966  -2.5734  -2.2115  -1.8144  -1.7574  -1.4298  -1.4088
    -1.2128  -1.1724  -1.1217  -0.5576   0.6485   1.0144   1.0264   1.1667
     1.2847   1.3269   1.6482   1.7819   1.9398   1.9548

          k =-0.3333 0.3849 0.0000 ( 59291 PWs)   bands (ev):

   -72.9963 -72.9367 -44.7339 -44.3695 -44.3422 -44.3403 -44.3241 -44.2965
   -21.1157 -20.9178 -20.7207 -20.1596 -19.8074 -19.4676 -19.3186 -19.1743
   -19.0192 -18.7790 -18.6337 -18.5504 -18.1410 -18.1032 -17.9205 -17.7248
   -12.3484 -12.1128 -12.0457 -11.9102 -11.6828 -11.6571 -11.5547 -10.9431
   -10.8885 -10.6220 -10.5273  -9.8597  -9.6948  -9.3374  -9.1122  -8.6657
    -8.6232  -8.5538  -8.3915  -8.3868  -8.1619  -8.1108  -8.0647  -8.0526
    -7.6858  -7.6234  -7.5007  -7.4703  -7.3496  -7.1733  -7.0701  -6.8694
    -6.6216  -6.3924  -6.1809  -6.1605  -5.9693  -5.9285  -5.7840  -5.7589
    -5.4533  -5.3933  -5.1913  -5.0562  -4.4312  -4.3711  -4.0873  -3.7688
    -3.3422  -2.5969  -2.5733  -2.2113  -1.8134  -1.7575  -1.4306  -1.4088
    -1.2104  -1.1713  -1.1211  -0.5265   0.6025   0.9978   1.0305   1.1363
     1.2363   1.3834   1.5405   1.8368   1.9165   1.9699

          k =-0.1667-0.0962 0.0000 ( 59226 PWs)   bands (ev):

   -72.9963 -72.9367 -44.7339 -44.3695 -44.3421 -44.3403 -44.3241 -44.2965
   -21.3142 -20.5365 -20.3480 -20.3382 -19.9921 -19.9789 -19.8068 -18.7330
   -18.7206 -18.3767 -18.3700 -18.3551 -18.2689 -18.2634 -18.0800 -18.0709
   -12.5073 -12.5039 -12.4090 -11.5834 -11.5758 -11.4264 -11.4224 -10.9277
   -10.9240  -9.9306  -9.9267  -9.6765  -9.3755  -9.3734  -9.2314  -9.2288
    -9.0431  -9.0412  -8.9263  -8.3251  -8.3220  -7.9023  -7.9004  -7.8836
    -7.8459  -7.7714  -7.6136  -7.5793  -7.1430  -7.0860  -6.9603  -6.8900
    -6.8853  -6.8514  -6.5333  -6.5282  -6.2586  -5.3596  -5.3125  -5.1442
    -5.0664  -4.8123  -4.8040  -4.7510  -4.6141  -4.6077  -4.3595  -4.3285
    -3.3483  -2.5975  -2.5716  -2.2177  -1.8156  -1.7572  -1.4299  -1.4074
    -1.2038  -1.1701  -1.1172  -0.4454   0.6973   0.8937   0.9579   1.2194
     1.2583   1.3664   1.5893   1.6112   1.7567   1.9965

          k =-0.0000-0.1925 0.0000 ( 59226 PWs)   bands (ev):

   -72.9963 -72.9367 -44.7339 -44.3695 -44.3421 -44.3403 -44.3241 -44.2965
   -21.3143 -20.5319 -20.3518 -20.3428 -19.9858 -19.9781 -19.8100 -18.7294
   -18.7209 -18.3940 -18.3717 -18.3550 -18.2562 -18.2559 -18.0813 -18.0743
   -12.5100 -12.5012 -12.4090 -11.5833 -11.5776 -11.4274 -11.4183 -10.9280
   -10.9254  -9.9295  -9.9276  -9.6770  -9.3763  -9.3716  -9.2309  -9.2297
    -9.0427  -9.0420  -8.9268  -8.3243  -8.3219  -7.9015  -7.8993  -7.8693
    -7.8452  -7.7730  -7.6219  -7.6010  -7.1063  -7.0992  -6.9590  -6.8900
    -6.8868  -6.8607  -6.5323  -6.5285  -6.2592  -5.3380  -5.3269  -5.1444
    -5.0661  -4.8374  -4.8098  -4.7536  -4.5969  -4.5909  -4.3506  -4.3449
    -3.3498  -2.5978  -2.5716  -2.2174  -1.8146  -1.7573  -1.4307  -1.4074
    -1.2017  -1.1689  -1.1166  -0.4028   0.6314   0.8510   0.9391   1.1911
     1.2647   1.3829   1.5935   1.6251   1.6974   2.0185

          k = 0.5000-0.8660 0.0000 ( 59292 PWs)   bands (ev):

   -72.9964 -72.9367 -44.7339 -44.3695 -44.3421 -44.3403 -44.3241 -44.2965
   -21.0549 -21.0432 -20.4728 -20.4625 -19.4303 -19.4211 -19.4116 -19.4106
   -18.9961 -18.9871 -18.3289 -18.3248 -18.3158 -18.3106 -17.7970 -17.7874
   -12.0737 -12.0698 -12.0614 -12.0590 -11.8816 -11.8713 -11.3327 -11.3255
   -10.2373 -10.2312 -10.1367 -10.1346 -10.1293 -10.1266  -8.6050  -8.5515
    -8.5500  -8.5427  -8.5405  -8.5320  -7.8669  -7.8643  -7.8595  -7.8571
    -7.8253  -7.8212  -7.7869  -7.7494  -7.4929  -7.4856  -6.6145  -6.6064
    -6.3595  -6.3434  -6.3005  -6.2943  -6.1923  -6.1871  -5.7164  -5.6940
    -5.5487  -5.5409  -4.7392  -4.7342  -4.6874  -4.6824  -3.8947  -3.8651
    -3.3405  -2.5966  -2.5733  -2.2115  -1.8139  -1.7575  -1.4298  -1.4088
    -1.2129  -1.1723  -1.1217  -0.5579   0.6573   1.0256   1.0416   1.1323
     1.4220   1.5853   1.5997   1.6091   1.7792   1.8874

          k =-1.0000 0.0000 0.0000 ( 59292 PWs)   bands (ev):

   -72.9964 -72.9367 -44.7339 -44.3695 -44.3421 -44.3404 -44.3241 -44.2965
   -21.0750 -21.0205 -20.4742 -20.4655 -19.4243 -19.4217 -19.4177 -19.4044
   -19.0130 -18.9713 -18.3712 -18.3359 -18.2925 -18.2815 -17.7965 -17.7893
   -12.1024 -12.0816 -12.0402 -12.0356 -11.8802 -11.8736 -11.3508 -11.3097
   -10.2421 -10.2398 -10.1320 -10.1307 -10.1265 -10.1257  -8.6360  -8.5749
    -8.5584  -8.5288  -8.5181  -8.4921  -7.8738  -7.8692  -7.8622  -7.8613
    -7.8151  -7.8150  -7.7829  -7.7682  -7.5140  -7.4665  -6.6117  -6.6067
    -6.3473  -6.3428  -6.3024  -6.2887  -6.2088  -6.1731  -5.7372  -5.6780
    -5.5669  -5.5229  -4.7956  -4.7568  -4.6501  -4.6451  -3.8838  -3.8767
    -3.3473  -2.5970  -2.5728  -2.2106  -1.8119  -1.7575  -1.4327  -1.4087
    -1.2032  -1.1681  -1.1190  -0.4144   0.4764   0.9063   1.0011   1.1247
     1.1910   1.5600   1.5954   1.6001   1.6412   1.9165

 ------ SPIN DOWN ----------


          k = 0.1667 0.2887 0.0000 ( 59267 PWs)   bands (ev):

   -68.8466 -68.7814 -40.7553 -40.3220 -40.2187 -40.1785 -40.1680 -40.1277
   -21.2438 -20.6593 -20.6511 -20.1000 -20.0950 -19.5857 -19.5788 -19.0963
   -18.6948 -18.6870 -18.4531 -18.4487 -18.1909 -18.0824 -18.0757 -17.8465
   -12.4826 -12.2040 -12.2009 -11.8197 -11.8163 -11.6574 -11.1919 -11.1857
   -10.3898 -10.3662 -10.1167 -10.1122  -9.5883  -9.5857  -8.8253  -8.8216
    -8.8160  -8.7657  -8.7593  -8.5951  -8.1957  -8.0374  -7.9973  -7.8276
    -7.8256  -7.4368  -7.4342  -7.2597  -7.2494  -7.2071  -7.2044  -6.9585
    -6.9545  -6.5542  -6.5212  -6.1523  -6.1511  -5.8565  -5.4164  -5.2769
    -5.2601  -5.1984  -4.8957  -4.8908  -4.4912  -4.3429  -4.3306  -3.9664
    -1.5442   0.4725   0.5022   0.6114   0.6753   1.1572   1.2212   1.2942
     1.3557   1.4704   1.5323   1.5799   1.6437   1.7107   1.7990   1.9094
     2.0780   2.1170   2.1916   2.2468   2.3578   2.4108

          k = 0.1667-0.4811 0.0000 ( 59291 PWs)   bands (ev):

   -68.8466 -68.7814 -40.7553 -40.3220 -40.2187 -40.1785 -40.1680 -40.1277
   -21.1131 -20.9098 -20.7197 -20.1577 -19.8014 -19.4634 -19.3142 -19.1713
   -19.0114 -18.7756 -18.6368 -18.5421 -18.1440 -18.0883 -17.9186 -17.7206
   -12.3466 -12.1117 -12.0432 -11.9051 -11.6798 -11.6567 -11.5512 -10.9403
   -10.8882 -10.6216 -10.5216  -9.8582  -9.6918  -9.3342  -9.1093  -8.6464
    -8.6212  -8.5510  -8.3877  -8.3570  -8.1599  -8.1047  -8.0615  -8.0485
    -7.6867  -7.6218  -7.4926  -7.4729  -7.3388  -7.1689  -7.0663  -6.8456
    -6.6198  -6.3744  -6.1635  -6.1562  -5.9564  -5.9269  -5.7819  -5.7314
    -5.4498  -5.3825  -5.1875  -5.0336  -4.4246  -4.3427  -4.0755  -3.7545
    -1.5366   0.4726   0.4883   0.6004   0.6960   1.0605   1.1488   1.2098
     1.2641   1.3511   1.6169   1.6547   1.7080   1.8170   1.8871   2.1079
     2.1518   2.1764   2.2155   2.2549   2.3320   2.4010

          k = 0.1667-0.0962 0.0000 ( 59226 PWs)   bands (ev):

   -68.8466 -68.7814 -40.7553 -40.3220 -40.2187 -40.1785 -40.1680 -40.1277
   -21.3103 -20.5321 -20.3441 -20.3349 -19.9871 -19.9755 -19.8035 -18.7275
   -18.7168 -18.3713 -18.3656 -18.3514 -18.2646 -18.2594 -18.0759 -18.0678
   -12.5049 -12.5017 -12.4067 -11.5808 -11.5738 -11.4238 -11.4200 -10.9250
   -10.9216  -9.9278  -9.9245  -9.6737  -9.3731  -9.3709  -9.2282  -9.2260
    -9.0408  -9.0387  -8.9062  -8.3218  -8.3190  -7.8997  -7.8978  -7.8603
    -7.8420  -7.7690  -7.5960  -7.5693  -7.1159  -7.0760  -6.9575  -6.8873
    -6.8832  -6.8409  -6.5304  -6.5260  -6.2559  -5.3328  -5.3008  -5.1414
    -5.0634  -4.7915  -4.7858  -4.7376  -4.6001  -4.5949  -4.3414  -4.3196
    -1.5520   0.4720   0.5170   0.6154   0.6613   1.0785   1.1814   1.2618
     1.4223   1.5392   1.5939   1.6736   1.7274   1.7331   1.8457   1.9146
     2.0034   2.0499   2.1045   2.2675   2.3127   2.3760

          k =-0.5000-0.8660 0.0000 ( 59292 PWs)   bands (ev):

   -68.8466 -68.7814 -40.7553 -40.3220 -40.2187 -40.1785 -40.1680 -40.1277
   -21.0493 -21.0408 -20.4687 -20.4592 -19.4246 -19.4167 -19.4087 -19.4070
   -18.9905 -18.9849 -18.3225 -18.3177 -18.3134 -18.3093 -17.7922 -17.7837
   -12.0699 -12.0664 -12.0602 -12.0577 -11.8791 -11.8697 -11.3297 -11.3236
   -10.2342 -10.2291 -10.1334 -10.1317 -10.1267 -10.1244  -8.5726  -8.5473
    -8.5463  -8.5410  -8.5394  -8.5246  -7.8640  -7.8613  -7.8575  -7.8548
    -7.8216  -7.8175  -7.7682  -7.7392  -7.4895  -7.4842  -6.6111  -6.6044
    -6.3312  -6.3186  -6.2909  -6.2844  -6.1887  -6.1850  -5.6975  -5.6844
    -5.5445  -5.5393  -4.7134  -4.7082  -4.6809  -4.6778  -3.8755  -3.8548
    -1.5205   0.2715   0.4801   0.6170   0.6818   1.0858   1.1804   1.3247
     1.4951   1.5326   1.5918   1.6256   1.7256   1.7383   1.8856   1.9249
     1.9696   2.1511   2.2130   2.2836   2.3211   2.4171

          k =-0.1667 0.2887 0.0000 ( 59267 PWs)   bands (ev):

   -68.8466 -68.7814 -40.7553 -40.3220 -40.2187 -40.1785 -40.1680 -40.1277
   -21.2438 -20.6593 -20.6511 -20.1000 -20.0950 -19.5857 -19.5788 -19.0963
   -18.6947 -18.6870 -18.4531 -18.4487 -18.1909 -18.0824 -18.0757 -17.8465
   -12.4825 -12.2040 -12.2009 -11.8197 -11.8163 -11.6574 -11.1918 -11.1857
   -10.3899 -10.3662 -10.1167 -10.1122  -9.5883  -9.5857  -8.8252  -8.8216
    -8.8160  -8.7658  -8.7594  -8.5951  -8.1958  -8.0374  -7.9973  -7.8276
    -7.8256  -7.4368  -7.4342  -7.2597  -7.2494  -7.2071  -7.2044  -6.9586
    -6.9545  -6.5542  -6.5212  -6.1522  -6.1510  -5.8565  -5.4165  -5.2770
    -5.2601  -5.1984  -4.8957  -4.8908  -4.4913  -4.3429  -4.3306  -3.9664
    -1.5442   0.4725   0.5022   0.6114   0.6753   1.1573   1.2212   1.2941
     1.3557   1.4704   1.5323   1.5799   1.6437   1.7107   1.7989   1.9094
     2.0780   2.1170   2.1913   2.2467   2.3571   2.4096

          k = 0.3333 0.0000 0.0000 ( 59267 PWs)   bands (ev):

   -68.8466 -68.7814 -40.7553 -40.3220 -40.2187 -40.1785 -40.1680 -40.1277
   -21.2435 -20.6803 -20.6300 -20.1024 -20.0911 -19.6077 -19.5585 -19.0981
   -18.7079 -18.6696 -18.4574 -18.4459 -18.1871 -18.1021 -18.0616 -17.8458
   -12.4822 -12.2072 -12.1977 -11.8276 -11.8105 -11.6554 -11.2069 -11.1711
   -10.3894 -10.3658 -10.1275 -10.1018  -9.5933  -9.5797  -8.8320  -8.8205
    -8.8082  -8.7851  -8.7415  -8.5958  -8.1972  -8.0724  -7.9621  -7.8267
    -7.8247  -7.4417  -7.4287  -7.2728  -7.2326  -7.2153  -7.1961  -6.9622
    -6.9520  -6.5900  -6.4901  -6.1546  -6.1480  -5.8610  -5.4163  -5.2909
    -5.2389  -5.1986  -4.9043  -4.8839  -4.4856  -4.3648  -4.3169  -3.9654
    -1.5340   0.3423   0.4950   0.6147   0.6741   1.0546   1.2693   1.3989
     1.4747   1.4965   1.5415   1.6271   1.7068   1.7421   1.7426   1.9749
     2.0284   2.1340   2.1674   2.2707   2.3677   2.4051

          k =-0.1667-0.4811 0.0000 ( 59291 PWs)   bands (ev):

   -68.8466 -68.7814 -40.7553 -40.3220 -40.2187 -40.1785 -40.1680 -40.1277
   -21.1131 -20.9098 -20.7197 -20.1577 -19.8014 -19.4634 -19.3142 -19.1713
   -19.0114 -18.7756 -18.6368 -18.5421 -18.1440 -18.0883 -17.9186 -17.7206
   -12.3466 -12.1117 -12.0432 -11.9050 -11.6798 -11.6567 -11.5513 -10.9403
   -10.8882 -10.6216 -10.5216  -9.8581  -9.6918  -9.3342  -9.1093  -8.6464
    -8.6211  -8.5510  -8.3876  -8.3570  -8.1598  -8.1047  -8.0616  -8.0485
    -7.6867  -7.6218  -7.4925  -7.4729  -7.3388  -7.1688  -7.0662  -6.8456
    -6.6198  -6.3744  -6.1635  -6.1563  -5.9565  -5.9269  -5.7819  -5.7314
    -5.4499  -5.3825  -5.1875  -5.0336  -4.4246  -4.3427  -4.0755  -3.7545
    -1.5366   0.4726   0.4882   0.6004   0.6960   1.0605   1.1488   1.2098
     1.2641   1.3511   1.6169   1.6547   1.7081   1.8170   1.8871   2.1078
     2.1519   2.1764   2.2156   2.2548   2.3317   2.4005

          k = 0.5000-0.0962 0.0000 ( 59291 PWs)   bands (ev):

   -68.8466 -68.7814 -40.7553 -40.3220 -40.2187 -40.1785 -40.1680 -40.1277
   -21.1108 -20.9161 -20.7157 -20.1561 -19.8014 -19.4654 -19.3187 -19.1673
   -19.0122 -18.7766 -18.6281 -18.5471 -18.1337 -18.1019 -17.9165 -17.7203
   -12.3456 -12.1122 -12.0415 -11.9087 -11.6903 -11.6439 -11.5532 -10.9406
   -10.8863 -10.6201 -10.5238  -9.8561  -9.6923  -9.3350  -9.1088  -8.6400
    -8.6216  -8.5492  -8.3918  -8.3759  -8.1582  -8.0925  -8.0730  -8.0383
    -7.6833  -7.6222  -7.4918  -7.4739  -7.3346  -7.1701  -7.0669  -6.8450
    -6.6201  -6.3800  -6.1740  -6.1558  -5.9471  -5.9263  -5.7812  -5.7331
    -5.4507  -5.3836  -5.1721  -5.0426  -4.4092  -4.3617  -4.0737  -3.7540
    -1.5206   0.2732   0.4796   0.6126   0.6861   1.0744   1.1301   1.2293
     1.3486   1.5115   1.6596   1.7004   1.7377   1.8565   1.9805   2.0272
     2.1022   2.1718   2.2176   2.2533   2.3364   2.3988

          k =-0.3333-0.3849 0.0000 ( 59291 PWs)   bands (ev):

   -68.8466 -68.7814 -40.7553 -40.3220 -40.2187 -40.1785 -40.1680 -40.1277
   -21.1116 -20.9139 -20.7172 -20.1559 -19.8032 -19.4636 -19.3145 -19.1703
   -19.0146 -18.7751 -18.6294 -18.5465 -18.1358 -18.0994 -17.9166 -17.7205
   -12.3462 -12.1104 -12.0435 -11.9077 -11.6805 -11.6550 -11.5523 -10.9405
   -10.8860 -10.6196 -10.5245  -9.8567  -9.6924  -9.3346  -9.1097  -8.6418
    -8.6206  -8.5508  -8.3889  -8.3691  -8.1595  -8.0973  -8.0618  -8.0505
    -7.6835  -7.6210  -7.4974  -7.4687  -7.3337  -7.1701  -7.0674  -6.8504
    -6.6184  -6.3753  -6.1637  -6.1573  -5.9547  -5.9254  -5.7814  -5.7390
    -5.4506  -5.3801  -5.1732  -5.0426  -4.4110  -4.3597  -4.0734  -3.7542
    -1.5260   0.3324   0.4743   0.6109   0.6865   1.0680   1.2008   1.2449
     1.2685   1.4059   1.6210   1.7011   1.7659   1.9442   1.9846   2.0280
     2.0767   2.1105   2.1890   2.2326   2.3432   2.4017

          k = 0.5000 0.0962 0.0000 ( 59291 PWs)   bands (ev):

   -68.8466 -68.7814 -40.7553 -40.3220 -40.2187 -40.1785 -40.1680 -40.1277
   -21.1108 -20.9161 -20.7157 -20.1561 -19.8014 -19.4654 -19.3188 -19.1673
   -19.0122 -18.7766 -18.6281 -18.5471 -18.1337 -18.1019 -17.9165 -17.7203
   -12.3456 -12.1122 -12.0414 -11.9087 -11.6903 -11.6439 -11.5532 -10.9405
   -10.8863 -10.6201 -10.5239  -9.8561  -9.6924  -9.3350  -9.1088  -8.6400
    -8.6216  -8.5492  -8.3918  -8.3759  -8.1582  -8.0925  -8.0730  -8.0382
    -7.6833  -7.6222  -7.4918  -7.4739  -7.3346  -7.1701  -7.0669  -6.8450
    -6.6200  -6.3800  -6.1740  -6.1557  -5.9471  -5.9263  -5.7813  -5.7331
    -5.4508  -5.3836  -5.1721  -5.0426  -4.4092  -4.3617  -4.0737  -3.7540
    -1.5206   0.2732   0.4796   0.6126   0.6861   1.0744   1.1301   1.2293
     1.3486   1.5115   1.6596   1.7005   1.7376   1.8565   1.9805   2.0271
     2.1022   2.1717   2.2177   2.2535   2.3363   2.3986

          k =-0.3333 0.3849 0.0000 ( 59291 PWs)   bands (ev):

   -68.8466 -68.7814 -40.7553 -40.3220 -40.2187 -40.1785 -40.1680 -40.1277
   -21.1116 -20.9139 -20.7172 -20.1559 -19.8032 -19.4636 -19.3145 -19.1703
   -19.0146 -18.7751 -18.6294 -18.5465 -18.1358 -18.0994 -17.9166 -17.7205
   -12.3462 -12.1104 -12.0435 -11.9077 -11.6805 -11.6550 -11.5523 -10.9406
   -10.8859 -10.6195 -10.5245  -9.8568  -9.6924  -9.3345  -9.1097  -8.6418
    -8.6206  -8.5507  -8.3889  -8.3691  -8.1596  -8.0973  -8.0618  -8.0505
    -7.6834  -7.6210  -7.4974  -7.4687  -7.3337  -7.1701  -7.0675  -6.8504
    -6.6185  -6.3753  -6.1637  -6.1573  -5.9547  -5.9255  -5.7813  -5.7390
    -5.4505  -5.3801  -5.1732  -5.0426  -4.4111  -4.3597  -4.0733  -3.7542
    -1.5260   0.3324   0.4743   0.6109   0.6865   1.0679   1.2008   1.2449
     1.2685   1.4059   1.6211   1.7010   1.7659   1.9442   1.9845   2.0280
     2.0768   2.1105   2.1891   2.2324   2.3431   2.4015

          k =-0.1667-0.0962 0.0000 ( 59226 PWs)   bands (ev):

   -68.8466 -68.7814 -40.7553 -40.3220 -40.2187 -40.1785 -40.1680 -40.1277
   -21.3103 -20.5321 -20.3441 -20.3349 -19.9871 -19.9755 -19.8035 -18.7275
   -18.7168 -18.3714 -18.3656 -18.3514 -18.2646 -18.2594 -18.0759 -18.0678
   -12.5049 -12.5018 -12.4066 -11.5808 -11.5738 -11.4238 -11.4200 -10.9250
   -10.9216  -9.9279  -9.9245  -9.6737  -9.3731  -9.3709  -9.2282  -9.2260
    -9.0408  -9.0387  -8.9062  -8.3219  -8.3190  -7.8997  -7.8977  -7.8603
    -7.8419  -7.7690  -7.5960  -7.5693  -7.1159  -7.0760  -6.9575  -6.8873
    -6.8832  -6.8409  -6.5303  -6.5259  -6.2560  -5.3328  -5.3008  -5.1413
    -5.0635  -4.7915  -4.7858  -4.7376  -4.6000  -4.5949  -4.3414  -4.3196
    -1.5520   0.4720   0.5170   0.6154   0.6613   1.0785   1.1814   1.2618
     1.4223   1.5392   1.5939   1.6736   1.7273   1.7331   1.8457   1.9146
     2.0034   2.0499   2.1047   2.2675   2.3126   2.3759

          k =-0.0000-0.1925 0.0000 ( 59226 PWs)   bands (ev):

   -68.8466 -68.7814 -40.7553 -40.3220 -40.2187 -40.1785 -40.1680 -40.1277
   -21.3104 -20.5280 -20.3474 -20.3390 -19.9819 -19.9745 -19.8063 -18.7247
   -18.7168 -18.3870 -18.3668 -18.3508 -18.2539 -18.2528 -18.0772 -18.0703
   -12.5081 -12.4986 -12.4066 -11.5807 -11.5753 -11.4252 -11.4159 -10.9253
   -10.9229  -9.9272  -9.9250  -9.6740  -9.3734  -9.3696  -9.2280  -9.2268
    -9.0401  -9.0397  -8.9066  -8.3213  -8.3188  -7.8989  -7.8971  -7.8520
    -7.8390  -7.7704  -7.6015  -7.5851  -7.0921  -7.0829  -6.9564  -6.8875
    -6.8843  -6.8479  -6.5297  -6.5260  -6.2565  -5.3200  -5.3085  -5.1415
    -5.0633  -4.8105  -4.7896  -4.7387  -4.5885  -4.5822  -4.3376  -4.3287
    -1.5569   0.4736   0.6072   0.6271   0.6597   1.1388   1.1583   1.1872
     1.3627   1.5149   1.5554   1.5858   1.6902   1.7455   1.8334   1.9542
     2.0322   2.0909   2.1133   2.2324   2.3276   2.3919

          k = 0.5000-0.8660 0.0000 ( 59292 PWs)   bands (ev):

   -68.8466 -68.7814 -40.7553 -40.3220 -40.2187 -40.1785 -40.1680 -40.1277
   -21.0493 -21.0408 -20.4687 -20.4592 -19.4246 -19.4167 -19.4087 -19.4070
   -18.9905 -18.9849 -18.3226 -18.3176 -18.3133 -18.3093 -17.7922 -17.7837
   -12.0699 -12.0664 -12.0601 -12.0578 -11.8791 -11.8697 -11.3297 -11.3236
   -10.2343 -10.2291 -10.1334 -10.1318 -10.1267 -10.1244  -8.5726  -8.5473
    -8.5463  -8.5409  -8.5394  -8.5246  -7.8640  -7.8613  -7.8575  -7.8548
    -7.8216  -7.8175  -7.7682  -7.7392  -7.4895  -7.4843  -6.6111  -6.6043
    -6.3312  -6.3186  -6.2909  -6.2845  -6.1886  -6.1849  -5.6975  -5.6844
    -5.5446  -5.5394  -4.7135  -4.7082  -4.6808  -4.6779  -3.8755  -3.8548
    -1.5205   0.2715   0.4801   0.6170   0.6819   1.0859   1.1805   1.3247
     1.4950   1.5326   1.5918   1.6256   1.7256   1.7383   1.8856   1.9250
     1.9696   2.1510   2.2130   2.2836   2.3207   2.4177

          k =-1.0000 0.0000 0.0000 ( 59292 PWs)   bands (ev):

   -68.8466 -68.7814 -40.7553 -40.3220 -40.2187 -40.1785 -40.1680 -40.1277
   -21.0692 -21.0186 -20.4700 -20.4619 -19.4199 -19.4177 -19.4137 -19.4008
   -19.0069 -18.9695 -18.3626 -18.3293 -18.2912 -18.2807 -17.7921 -17.7850
   -12.0992 -12.0780 -12.0387 -12.0348 -11.8780 -11.8715 -11.3471 -11.3081
   -10.2394 -10.2367 -10.1290 -10.1285 -10.1238 -10.1237  -8.6025  -8.5702
    -8.5554  -8.5276  -8.5172  -8.4880  -7.8705  -7.8661  -7.8596  -7.8583
    -7.8125  -7.8113  -7.7658  -7.7524  -7.5102  -7.4653  -6.6091  -6.6041
    -6.3254  -6.3186  -6.2917  -6.2777  -6.2045  -6.1712  -5.7179  -5.6671
    -5.5625  -5.5217  -4.7625  -4.7306  -4.6472  -4.6427  -3.8704  -3.8611
    -1.5417   0.4870   0.5867   0.5958   0.7006   1.0675   1.1144   1.1864
     1.3478   1.5043   1.5870   1.6224   1.6444   1.6532   1.7883   1.8140
     2.0984   2.2315   2.2519   2.2992   2.3021   2.3958

     the Fermi energy is    -0.8227 ev

!    total energy              =   -1133.79662410 Ry

     total all-electron energy =     -6753.472327 Ry
     estimated scf accuracy    <       0.00000003 Ry
     smearing contrib. (-TS)   =      -0.00000000 Ry
     internal energy E=F+TS    =   -1133.79662410 Ry

     The total energy is F=E-TS. E is the sum of the following terms:
     one-electron contribution =   -3976.12710151 Ry
     hartree contribution      =    2016.16474100 Ry
     xc contribution           =    -186.07487304 Ry
     ewald contribution        =    1371.61476083 Ry
     DFT-D3 Dispersion         =      -0.12242828 Ry
     one-center paw contrib.   =    -359.25172310 Ry

     total magnetization       =    10.00 Bohr mag/cell
     absolute magnetization    =    10.01 Bohr mag/cell

     convergence has been achieved in  14 iterations

     Writing output data file ./mytmp/Crdimer0.12-0.5.save/
 
     init_run     :     18.90s CPU     20.20s WALL (       1 calls)
     electrons    :    517.70s CPU    562.82s WALL (       1 calls)

     Called by init_run:
     wfcinit      :     13.85s CPU     14.64s WALL (       1 calls)
     potinit      :      1.55s CPU      1.62s WALL (       1 calls)
     hinit0       :      1.52s CPU      1.61s WALL (       1 calls)

     Called by electrons:
     c_bands      :    403.35s CPU    429.49s WALL (      14 calls)
     sum_band     :     80.71s CPU     92.05s WALL (      14 calls)
     v_of_rho     :      7.52s CPU      8.29s WALL (      15 calls)
     newd         :     18.35s CPU     25.26s WALL (      15 calls)
     PAW_pot      :      7.38s CPU      7.47s WALL (      15 calls)
     mix_rho      :      0.99s CPU      1.05s WALL (      14 calls)

     Called by c_bands:
     init_us_2    :      5.04s CPU      5.09s WALL (     870 calls)
     cegterg      :    390.96s CPU    417.00s WALL (     420 calls)

     Called by *egterg:
     cdiaghg      :     24.52s CPU     39.21s WALL (    2712 calls)
     h_psi        :    239.93s CPU    249.99s WALL (    2742 calls)
     s_psi        :     27.03s CPU     27.14s WALL (    2742 calls)
     g_psi        :      0.69s CPU      0.71s WALL (    2292 calls)

     Called by h_psi:
     h_psi:calbec :     28.75s CPU     29.44s WALL (    2742 calls)
     vloc_psi     :    181.67s CPU    190.86s WALL (    2742 calls)
     add_vuspsi   :     27.36s CPU     27.52s WALL (    2742 calls)

     General routines
     calbec       :     38.36s CPU     39.25s WALL (    3162 calls)
     fft          :      9.58s CPU     13.83s WALL (     369 calls)
     ffts         :      0.11s CPU      0.11s WALL (      58 calls)
     fftw         :    187.96s CPU    197.20s WALL (  248184 calls)
     interpolate  :      0.42s CPU      0.43s WALL (      30 calls)
 
     Parallel routines
     fft_scatt_xy :     30.45s CPU     31.72s WALL (  248611 calls)
     fft_scatt_yz :     79.29s CPU     87.83s WALL (  248611 calls)
 
     PWSCF        :   8m58.64s CPU   9m47.72s WALL

 
   This run was terminated on:  12:54:24  31Mar2021            

=------------------------------------------------------------------------------=
   JOB DONE.
=------------------------------------------------------------------------------=
