
     Program PWSCF v.6.7MaX starts on 31Mar2021 at 11:48:18 

     This program is part of the open-source Quantum ESPRESSO suite
     for quantum simulation of materials; please cite
         "P. Giannozzi et al., J. Phys.:Condens. Matter 21 395502 (2009);
         "P. Giannozzi et al., J. Phys.:Condens. Matter 29 465901 (2017);
          URL http://www.quantum-espresso.org", 
     in publications or presentations arising from this work. More details at
     http://www.quantum-espresso.org/quote

     Parallel version (MPI), running on    48 processors

     MPI processes distributed on     1 nodes
     R & G space division:  proc/nbgrp/npool/nimage =      48
     Reading input from Crdimer0.11-0.5.scf.in

     Current dimensions of program PWSCF are:
     Max number of different atomic species (ntypx) = 10
     Max number of k-points (npk) =  40000
     Max angular momentum in pseudopotentials (lmaxx) =  3
     file N.pbe-n-kjpaw_psl.1.0.0.UPF: wavefunction(s)  2S renormalized
     file Cr.pbe-spn-kjpaw_psl.1.0.0.UPF: wavefunction(s)  3S 3P 3D renormalized
     file Cr.pbe-spn-kjpaw_psl.1.0.0.UPF: wavefunction(s)  3S 3P 3D renormalized

     --------------------------------------------
     Parameters for DFT-D3 Dispersion Correction:
     --------------------------------------------
       Reference C6 values for interpolation: 

         atom   Coordination number   C6
         B          0.000           214.36
         B          0.971           150.74
         B          1.944           106.23
         B          2.913            62.89
         B          4.586            56.06
         N          0.000            50.54
         N          0.994            44.25
         N          2.014            39.35
         N          2.990            31.16
         Cr1        0.000          1381.48
         Cr1        1.827           571.38
         Cr1       10.619           306.69
         Cr2        0.000          1381.48
         Cr2        1.827           571.38
         Cr2       10.619           306.69

       Values used:

         atom   Coordination number  R0_AB[au]  C6      C8
         B          3.336            3.039     62.89   2506.00
         B          3.340            3.039     62.89   2505.88
         B          3.335            3.039     62.89   2506.01
         B          3.335            3.039     62.89   2506.01
         B          3.340            3.039     62.89   2505.88
         B          3.336            3.039     62.89   2506.00
         N          3.134            2.478     31.22    688.70
         N          3.159            2.478     31.21    688.48
         N          3.134            2.478     31.22    688.69
         N          3.134            2.478     31.22    688.70
         N          3.145            2.478     31.21    688.60
         N          3.135            2.478     31.22    688.69
         N          3.138            2.478     31.22    688.66
         N          3.135            2.478     31.22    688.68
         N          3.134            2.478     31.22    688.70
         B          3.351            3.039     62.88   2505.60
         B          3.340            3.039     62.89   2505.88
         B          3.336            3.039     62.89   2506.00
         B          3.340            3.039     62.89   2505.88
         B          3.336            3.039     62.89   2506.00
         B          3.351            3.039     62.88   2505.60
         N          3.138            2.478     31.22    688.66
         B          3.336            3.039     62.89   2506.00
         B          3.382            3.039     62.86   2504.68
         B          3.335            3.039     62.89   2506.01
         N          3.135            2.478     31.22    688.69
         N          3.159            2.478     31.21    688.48
         N          3.135            2.478     31.22    688.69
         N          3.135            2.478     31.22    688.69
         N          3.134            2.478     31.22    688.69
         N          3.134            2.478     31.22    688.70
         B          3.335            3.039     62.89   2506.01
         Cr1        1.090            3.252    613.00  56572.93
         Cr2        1.090            3.252    613.00  56572.92

         Molecular C6 ( Ry / a.u.^6 ) =     68919.95


     Subspace diagonalization in iterative solution of the eigenvalue problem:
     one sub-group per band group will be used
     scalapack distributed-memory algorithm (size of sub-group:  6*  6 procs)

 
     Parallelization info
     --------------------
     sticks:   dense  smooth     PW     G-vecs:    dense   smooth      PW
     Min         235      98     26                36277     9874    1408
     Max         236      99     27                36282     9883    1425
     Sum       11311    4741   1285              1741401   474235   68095
 


     bravais-lattice index     =            4
     lattice parameter (alat)  =      18.9275  a.u.
     unit-cell volume          =   10553.3021 (a.u.)^3
     number of atoms/cell      =           34
     number of atomic types    =            4
     number of electrons       =       156.00
     number of Kohn-Sham states=           94
     kinetic-energy cutoff     =      48.0000  Ry
     charge density cutoff     =     457.0000  Ry
     scf convergence threshold =      1.0E-07
     mixing beta               =       0.5000
     number of iterations used =            8  plain     mixing
     Exchange-correlation= SLA  PW   PBX  PBC
                           (   1   4   3   4   0   0   0)

     celldm(1)=  18.927497  celldm(2)=   0.000000  celldm(3)=   1.797125
     celldm(4)=   0.000000  celldm(5)=   0.000000  celldm(6)=   0.000000

     crystal axes: (cart. coord. in units of alat)
               a(1) = (   1.000000   0.000000   0.000000 )  
               a(2) = (  -0.500000   0.866025   0.000000 )  
               a(3) = (   0.000000   0.000000   1.797125 )  

     reciprocal axes: (cart. coord. in units 2 pi/alat)
               b(1) = (  1.000000  0.577350  0.000000 )  
               b(2) = (  0.000000  1.154701  0.000000 )  
               b(3) = (  0.000000  0.000000  0.556444 )  


     PseudoPot. # 1 for B  read from file:
     /home/sf05/q-e-qe-6.7MaX-Release/pseudo/B.pbe-n-kjpaw_psl.1.0.0.UPF
     MD5 check sum: d9c678ba5d3b2fd7b74e61139c9288d8
     Pseudo is Projector augmented-wave + core cor, Zval =  3.0
     Generated using "atomic" code by A. Dal Corso  v.5.1.2
     Shape of augmentation charge: PSQ
     Using radial grid of 1059 points,  4 beta functions with: 
                l(1) =   0
                l(2) =   0
                l(3) =   1
                l(4) =   1
     Q(r) pseudized with 0 coefficients 


     PseudoPot. # 2 for N  read from file:
     /home/sf05/q-e-qe-6.7MaX-Release/pseudo/N.pbe-n-kjpaw_psl.1.0.0.UPF
     MD5 check sum: e0e4e94a9c4025c5b51bd7d8793849bd
     Pseudo is Projector augmented-wave + core cor, Zval =  5.0
     Generated using "atomic" code by A. Dal Corso  v.5.1.2
     Shape of augmentation charge: PSQ
     Using radial grid of 1085 points,  4 beta functions with: 
                l(1) =   0
                l(2) =   0
                l(3) =   1
                l(4) =   1
     Q(r) pseudized with 0 coefficients 


     PseudoPot. # 3 for Cr read from file:
     /home/sf05/q-e-qe-6.7MaX-Release/pseudo/Cr.pbe-spn-kjpaw_psl.1.0.0.UPF
     MD5 check sum: 198f1a2427a48552563eee314eba32ba
     Pseudo is Projector augmented-wave + core cor, Zval = 14.0
     Generated using &quot;atomic&quot; code by A. Dal Corso  v.6.3
     Shape of augmentation charge: PSQ
     Using radial grid of 1183 points,  6 beta functions with: 
                l(1) =   0
                l(2) =   0
                l(3) =   1
                l(4) =   1
                l(5) =   2
                l(6) =   2
     Q(r) pseudized with 0 coefficients 


     PseudoPot. # 4 for Cr read from file:
     /home/sf05/q-e-qe-6.7MaX-Release/pseudo/Cr.pbe-spn-kjpaw_psl.1.0.0.UPF
     MD5 check sum: 198f1a2427a48552563eee314eba32ba
     Pseudo is Projector augmented-wave + core cor, Zval = 14.0
     Generated using &quot;atomic&quot; code by A. Dal Corso  v.6.3
     Shape of augmentation charge: PSQ
     Using radial grid of 1183 points,  6 beta functions with: 
                l(1) =   0
                l(2) =   0
                l(3) =   1
                l(4) =   1
                l(5) =   2
                l(6) =   2
     Q(r) pseudized with 0 coefficients 


     atomic species   valence    mass     pseudopotential
        B              3.00    10.81100     B ( 1.00)
        N              5.00    14.00674     N ( 1.00)
        Cr1           14.00    51.99610     Cr( 1.00)
        Cr2           14.00    51.99610     Cr( 1.00)

     Starting magnetic structure 
     atomic species   magnetization
        B            0.000
        N            0.000
        Cr1          1.000
        Cr2          1.000

     No symmetry found



   Cartesian axes

     site n.     atom                  positions (alat units)
         1           B   tau(   1) = (  -0.1250000   0.2165064   0.8985623  )
         2           B   tau(   2) = (   0.3750000   0.6495191   0.8985623  )
         3           B   tau(   3) = (   0.2500000   0.0000000   0.8985623  )
         4           B   tau(   4) = (   0.7500000   0.0000000   0.8985623  )
         5           B   tau(   5) = (   0.1250000   0.2165064   0.8985623  )
         6           B   tau(   6) = (  -0.3750000   0.6495191   0.8985623  )
         7           N   tau(   7) = (   0.7500005   0.2886748   0.8985623  )
         8           N   tau(   8) = (   0.3750005   0.5051812   0.8985623  )
         9           N   tau(   9) = (   0.3750005   0.0721685   0.8985623  )
        10           N   tau(  10) = (   0.6250005   0.0721685   0.8985623  )
        11           N   tau(  11) = (   0.2500005   0.2886748   0.8985623  )
        12           N   tau(  12) = (   0.6250005   0.5051812   0.8985623  )
        13           N   tau(  13) = (   0.0000005   0.2886748   0.8985623  )
        14           N   tau(  14) = (   0.2500005   0.7216875   0.8985623  )
        15           N   tau(  15) = (  -0.2499995   0.7216875   0.8985623  )
        16           B   tau(  16) = (   0.0000000   0.4330127   0.8985623  )
        17           B   tau(  17) = (   0.1250000   0.6495191   0.8985623  )
        18           B   tau(  18) = (  -0.1250000   0.6495191   0.8985623  )
        19           B   tau(  19) = (   0.3750000   0.2165064   0.8985623  )
        20           B   tau(  20) = (   0.6250000   0.2165064   0.8985623  )
        21           B   tau(  21) = (   0.5000000   0.4330127   0.8985623  )
        22           N   tau(  22) = (   0.5000005   0.2886748   0.8985623  )
        23           B   tau(  23) = (  -0.2500000   0.4330127   0.8985623  )
        24           B   tau(  24) = (   0.2500000   0.4330127   0.8985623  )
        25           B   tau(  25) = (   0.5000000   0.0000000   0.8985623  )
        26           N   tau(  26) = (  -0.1249995   0.5051812   0.8985623  )
        27           N   tau(  27) = (   0.1250005   0.5051812   0.8985623  )
        28           N   tau(  28) = (   0.0000005   0.7216875   0.8985623  )
        29           N   tau(  29) = (   0.5000005   0.7216875   0.8985623  )
        30           N   tau(  30) = (   0.1250005   0.0721685   0.8985623  )
        31           N   tau(  31) = (   0.8750005   0.0721685   0.8985623  )
        32           B   tau(  32) = (   0.0000000   0.0000000   0.8985623  )
        33           Cr1 tau(  33) = (   0.3600000   0.4330127   1.2040735  )
        34           Cr2 tau(  34) = (   0.1400000   0.4330127   1.2040735  )

     number of k points=    15  Gaussian smearing, width (Ry)=  0.0000
                       cart. coord. in units 2pi/alat
        k(    1) = (   0.1666667   0.2886751   0.0000000), wk =   0.0740741
        k(    2) = (   0.1666667  -0.4811252   0.0000000), wk =   0.0740741
        k(    3) = (   0.1666667  -0.0962250   0.0000000), wk =   0.0740741
        k(    4) = (  -0.5000000  -0.8660254   0.0000000), wk =   0.0370370
        k(    5) = (  -0.1666667   0.2886751   0.0000000), wk =   0.0740741
        k(    6) = (   0.3333333   0.0000000   0.0000000), wk =   0.0740741
        k(    7) = (  -0.1666667  -0.4811252   0.0000000), wk =   0.0740741
        k(    8) = (   0.5000000  -0.0962250   0.0000000), wk =   0.0740741
        k(    9) = (  -0.3333333  -0.3849002   0.0000000), wk =   0.0740741
        k(   10) = (   0.5000000   0.0962250   0.0000000), wk =   0.0740741
        k(   11) = (  -0.3333333   0.3849002   0.0000000), wk =   0.0740741
        k(   12) = (  -0.1666667  -0.0962250   0.0000000), wk =   0.0740741
        k(   13) = (  -0.0000000  -0.1924501   0.0000000), wk =   0.0740741
        k(   14) = (   0.5000000  -0.8660254   0.0000000), wk =   0.0370370
        k(   15) = (  -1.0000000   0.0000000   0.0000000), wk =   0.0370370

     Dense  grid:  1741401 G-vectors     FFT dimensions: ( 135, 135, 240)

     Smooth grid:   474235 G-vectors     FFT dimensions: (  90,  90, 160)

     Estimated max dynamical RAM per process >     218.62 MB

     Estimated total dynamical RAM >      10.25 GB
     Generating pointlists ...
     new r_m :   0.0595 (alat units)  1.1269 (a.u.) for type    1
     new r_m :   0.0595 (alat units)  1.1269 (a.u.) for type    2
     new r_m :   0.0907 (alat units)  1.7177 (a.u.) for type    3
     new r_m :   0.0907 (alat units)  1.7177 (a.u.) for type    4

     Initial potential from superposition of free atoms

     starting charge  155.99382, renormalised to  156.00000

     negative rho (up, down):  6.845E-03 4.655E-04
     Starting wfcs are  148 randomized atomic wfcs
     Checking if some PAW data can be deallocated... 

     total cpu time spent up to now is       19.6 secs

     Self-consistent Calculation

     iteration #  1     ecut=    48.00 Ry     beta= 0.50
     Davidson diagonalization with overlap
     ethr =  1.00E-02,  avg # of iterations =  3.4

     negative rho (up, down):  1.084E-02 2.894E-03

     total cpu time spent up to now is       60.8 secs

     total energy              =   -1130.31073694 Ry
     estimated scf accuracy    <      12.35438091 Ry

     total magnetization       =    12.00 Bohr mag/cell
     absolute magnetization    =    12.48 Bohr mag/cell

     iteration #  2     ecut=    48.00 Ry     beta= 0.50
     Davidson diagonalization with overlap
     ethr =  7.92E-03,  avg # of iterations =  2.7

     negative rho (up, down):  8.694E-02 1.367E-02

     total cpu time spent up to now is       97.2 secs

     total energy              =   -1131.49956698 Ry
     estimated scf accuracy    <       7.12047089 Ry

     total magnetization       =     8.52 Bohr mag/cell
     absolute magnetization    =     8.63 Bohr mag/cell

     iteration #  3     ecut=    48.00 Ry     beta= 0.50
     Davidson diagonalization with overlap
     ethr =  4.56E-03,  avg # of iterations =  5.9

     negative rho (up, down):  1.356E-01 2.502E-02

     total cpu time spent up to now is      137.1 secs

     total energy              =   -1130.79997465 Ry
     estimated scf accuracy    <      19.12581783 Ry

     total magnetization       =     6.67 Bohr mag/cell
     absolute magnetization    =     6.90 Bohr mag/cell

     iteration #  4     ecut=    48.00 Ry     beta= 0.50
     Davidson diagonalization with overlap
     ethr =  4.56E-03,  avg # of iterations =  2.1

     negative rho (up, down):  3.501E-02 6.950E-03

     total cpu time spent up to now is      166.9 secs

     total energy              =   -1133.52707985 Ry
     estimated scf accuracy    <       0.94239800 Ry

     total magnetization       =    10.00 Bohr mag/cell
     absolute magnetization    =    10.05 Bohr mag/cell

     iteration #  5     ecut=    48.00 Ry     beta= 0.50
     Davidson diagonalization with overlap
     ethr =  6.04E-04,  avg # of iterations =  8.8

     negative rho (up, down):  9.439E-03 4.067E-03

     total cpu time spent up to now is      207.1 secs

     total energy              =   -1132.71751215 Ry
     estimated scf accuracy    <       9.73366023 Ry

     total magnetization       =     7.26 Bohr mag/cell
     absolute magnetization    =     7.45 Bohr mag/cell

     iteration #  6     ecut=    48.00 Ry     beta= 0.50
     Davidson diagonalization with overlap
     ethr =  6.04E-04,  avg # of iterations =  6.2

     negative rho (up, down):  3.448E-03 3.789E-03

     total cpu time spent up to now is      244.3 secs

     total energy              =   -1133.74018213 Ry
     estimated scf accuracy    <       0.24619453 Ry

     total magnetization       =    10.00 Bohr mag/cell
     absolute magnetization    =    10.02 Bohr mag/cell

     iteration #  7     ecut=    48.00 Ry     beta= 0.50
     Davidson diagonalization with overlap
     ethr =  1.58E-04,  avg # of iterations =  3.5

     negative rho (up, down):  3.130E-03 3.771E-03

     total cpu time spent up to now is      275.3 secs

     total energy              =   -1133.74007782 Ry
     estimated scf accuracy    <       0.09236699 Ry

     total magnetization       =    10.00 Bohr mag/cell
     absolute magnetization    =    10.02 Bohr mag/cell

     iteration #  8     ecut=    48.00 Ry     beta= 0.50
     Davidson diagonalization with overlap
     ethr =  5.92E-05,  avg # of iterations =  8.3

     negative rho (up, down):  3.208E-03 3.907E-03

     total cpu time spent up to now is      312.2 secs

     total energy              =   -1133.74299187 Ry
     estimated scf accuracy    <       0.02333779 Ry

     total magnetization       =    10.00 Bohr mag/cell
     absolute magnetization    =    10.02 Bohr mag/cell

     iteration #  9     ecut=    48.00 Ry     beta= 0.50
     Davidson diagonalization with overlap
     ethr =  1.50E-05,  avg # of iterations =  6.5

     negative rho (up, down):  3.242E-03 3.988E-03

     total cpu time spent up to now is      347.7 secs

     total energy              =   -1133.74477453 Ry
     estimated scf accuracy    <       0.00318841 Ry

     total magnetization       =    10.00 Bohr mag/cell
     absolute magnetization    =    10.02 Bohr mag/cell

     iteration # 10     ecut=    48.00 Ry     beta= 0.50
     Davidson diagonalization with overlap
     ethr =  2.04E-06,  avg # of iterations =  8.7

     negative rho (up, down):  3.390E-03 3.993E-03

     total cpu time spent up to now is      388.7 secs

     total energy              =   -1133.74498863 Ry
     estimated scf accuracy    <       0.00077782 Ry

     total magnetization       =    10.00 Bohr mag/cell
     absolute magnetization    =    10.02 Bohr mag/cell

     iteration # 11     ecut=    48.00 Ry     beta= 0.50
     Davidson diagonalization with overlap
     ethr =  4.99E-07,  avg # of iterations =  2.3

     negative rho (up, down):  3.277E-03 3.973E-03

     total cpu time spent up to now is      418.6 secs

     total energy              =   -1133.74503892 Ry
     estimated scf accuracy    <       0.00017243 Ry

     total magnetization       =    10.00 Bohr mag/cell
     absolute magnetization    =    10.02 Bohr mag/cell

     iteration # 12     ecut=    48.00 Ry     beta= 0.50
     Davidson diagonalization with overlap
     c_bands:  2 eigenvalues not converged
     ethr =  1.11E-07,  avg # of iterations =  4.9

     negative rho (up, down):  3.237E-03 3.967E-03

     total cpu time spent up to now is      451.1 secs

     total energy              =   -1133.74506076 Ry
     estimated scf accuracy    <       0.00004852 Ry

     total magnetization       =    10.00 Bohr mag/cell
     absolute magnetization    =    10.02 Bohr mag/cell

     iteration # 13     ecut=    48.00 Ry     beta= 0.50
     Davidson diagonalization with overlap
     ethr =  3.11E-08,  avg # of iterations =  3.4

     negative rho (up, down):  3.229E-03 3.970E-03

     total cpu time spent up to now is      482.8 secs

     total energy              =   -1133.74507030 Ry
     estimated scf accuracy    <       0.00001054 Ry

     total magnetization       =    10.00 Bohr mag/cell
     absolute magnetization    =    10.02 Bohr mag/cell

     iteration # 14     ecut=    48.00 Ry     beta= 0.50
     Davidson diagonalization with overlap
     ethr =  6.75E-09,  avg # of iterations =  4.0

     negative rho (up, down):  3.221E-03 3.970E-03

     total cpu time spent up to now is      514.7 secs

     total energy              =   -1133.74507423 Ry
     estimated scf accuracy    <       0.00000101 Ry

     total magnetization       =    10.00 Bohr mag/cell
     absolute magnetization    =    10.02 Bohr mag/cell

     iteration # 15     ecut=    48.00 Ry     beta= 0.50
     Davidson diagonalization with overlap
     ethr =  6.48E-10,  avg # of iterations =  4.7

     negative rho (up, down):  3.220E-03 3.971E-03

     total cpu time spent up to now is      550.2 secs

     total energy              =   -1133.74507514 Ry
     estimated scf accuracy    <       0.00000018 Ry

     total magnetization       =    10.00 Bohr mag/cell
     absolute magnetization    =    10.02 Bohr mag/cell

     iteration # 16     ecut=    48.00 Ry     beta= 0.50
     Davidson diagonalization with overlap
     ethr =  1.13E-10,  avg # of iterations =  5.1

     negative rho (up, down):  3.220E-03 3.972E-03
 
     Magnetic moment per site:
     atom:    1    charge:    0.8805    magn:    0.0004    constr:    0.0000
     atom:    2    charge:    0.8803    magn:    0.0010    constr:    0.0000
     atom:    3    charge:    0.8803    magn:    0.0001    constr:    0.0000
     atom:    4    charge:    0.8803    magn:    0.0001    constr:    0.0000
     atom:    5    charge:    0.8801    magn:    0.0002    constr:    0.0000
     atom:    6    charge:    0.8804    magn:    0.0001    constr:    0.0000
     atom:    7    charge:    2.8609    magn:    0.0003    constr:    0.0000
     atom:    8    charge:    2.8612    magn:    0.0088    constr:    0.0000
     atom:    9    charge:    2.8609    magn:    0.0004    constr:    0.0000
     atom:   10    charge:    2.8609    magn:    0.0003    constr:    0.0000
     atom:   11    charge:    2.8604    magn:    0.0074    constr:    0.0000
     atom:   12    charge:    2.8609    magn:    0.0006    constr:    0.0000
     atom:   13    charge:    2.8596    magn:    0.0034    constr:    0.0000
     atom:   14    charge:    2.8597    magn:    0.0011    constr:    0.0000
     atom:   15    charge:    2.8600    magn:    0.0001    constr:    0.0000
     atom:   16    charge:    0.8805    magn:    0.0000    constr:    0.0000
     atom:   17    charge:    0.8800    magn:    0.0010    constr:    0.0000
     atom:   18    charge:    0.8801    magn:    0.0001    constr:    0.0000
     atom:   19    charge:    0.8795    magn:    0.0002    constr:    0.0000
     atom:   20    charge:    0.8799    magn:    0.0004    constr:    0.0000
     atom:   21    charge:    0.8802    magn:    0.0000    constr:    0.0000
     atom:   22    charge:    2.8609    magn:    0.0034    constr:    0.0000
     atom:   23    charge:    0.8802    magn:    0.0000    constr:    0.0000
     atom:   24    charge:    0.8794    magn:   -0.0009    constr:    0.0000
     atom:   25    charge:    0.8799    magn:    0.0001    constr:    0.0000
     atom:   26    charge:    2.8598    magn:    0.0006    constr:    0.0000
     atom:   27    charge:    2.8600    magn:    0.0088    constr:    0.0000
     atom:   28    charge:    2.8597    magn:    0.0005    constr:    0.0000
     atom:   29    charge:    2.8596    magn:    0.0005    constr:    0.0000
     atom:   30    charge:    2.8596    magn:    0.0004    constr:    0.0000
     atom:   31    charge:    2.8596    magn:    0.0003    constr:    0.0000
     atom:   32    charge:    0.8802    magn:    0.0001    constr:    0.0000
     atom:   33    charge:   11.6548    magn:    3.6438    constr:    0.0000
     atom:   34    charge:   11.6547    magn:    3.6437    constr:    0.0000

     total cpu time spent up to now is      584.8 secs

     End of self-consistent calculation

 ------ SPIN UP ------------


          k = 0.1667 0.2887 0.0000 ( 59267 PWs)   bands (ev):

   -73.1963 -73.0445 -45.1669 -44.5318 -44.5031 -44.4278 -44.3987 -44.3474
   -21.2516 -20.6719 -20.6533 -20.1067 -20.1032 -19.5985 -19.5808 -19.1042
   -18.7083 -18.6900 -18.4596 -18.4574 -18.2002 -18.0921 -18.0795 -17.8541
   -12.4884 -12.2094 -12.2080 -11.8270 -11.8204 -11.6630 -11.2013 -11.1884
   -10.3962 -10.3722 -10.1260 -10.1155  -9.5958  -9.5902  -8.8470  -8.8292
    -8.8268  -8.7760  -8.7609  -8.6011  -8.2016  -8.0753  -8.0025  -7.8336
    -7.8317  -7.4455  -7.4393  -7.2808  -7.2701  -7.2152  -7.2083  -6.9635
    -6.9614  -6.5881  -6.5256  -6.1593  -6.1565  -5.8787  -5.4230  -5.3104
    -5.2748  -5.2047  -4.9132  -4.9102  -4.5177  -4.3625  -4.3437  -3.9860
    -3.6158  -3.1297  -3.0984  -2.5644  -2.0401  -1.9853  -1.4562  -1.4292
    -1.1113  -1.0755  -1.0177  -0.2979   0.5291   0.9137   0.9951   1.2280
     1.3405   1.4926   1.5339   1.5763   1.6195   1.8171

          k = 0.1667-0.4811 0.0000 ( 59291 PWs)   bands (ev):

   -73.1963 -73.0445 -45.1669 -44.5319 -44.5031 -44.4278 -44.3987 -44.3474
   -21.1213 -20.9171 -20.7267 -20.1652 -19.8089 -19.4711 -19.3223 -19.1785
   -19.0195 -18.7827 -18.6458 -18.5489 -18.1539 -18.0941 -17.9259 -17.7284
   -12.3526 -12.1179 -12.0489 -11.9109 -11.6875 -11.6607 -11.5571 -10.9466
   -10.8943 -10.6277 -10.5275  -9.8648  -9.6977  -9.3407  -9.1154  -8.6787
    -8.6276  -8.5573  -8.3937  -8.3754  -8.1656  -8.1227  -8.0694  -8.0527
    -7.6930  -7.6278  -7.4995  -7.4778  -7.3605  -7.1755  -7.0724  -6.8669
    -6.6266  -6.3953  -6.1879  -6.1625  -5.9732  -5.9336  -5.7882  -5.7536
    -5.4560  -5.4001  -5.2167  -5.0476  -4.4543  -4.3543  -4.0934  -3.7739
    -3.6154  -3.1295  -3.0993  -2.5613  -2.0394  -1.9855  -1.4571  -1.4297
    -1.1125  -1.0750  -1.0187  -0.3028   0.4534   0.9301   1.0099   1.1297
     1.2374   1.3102   1.4660   1.8434   1.9166   2.1294

          k = 0.1667-0.0962 0.0000 ( 59226 PWs)   bands (ev):

   -73.1963 -73.0445 -45.1669 -44.5318 -44.5030 -44.4278 -44.3987 -44.3474
   -21.3180 -20.5403 -20.3514 -20.3418 -19.9964 -19.9817 -19.8101 -18.7372
   -18.7240 -18.3804 -18.3753 -18.3583 -18.2708 -18.2668 -18.0834 -18.0741
   -12.5099 -12.5086 -12.4126 -11.5872 -11.5791 -11.4288 -11.4271 -10.9314
   -10.9274  -9.9340  -9.9304  -9.6801  -9.3789  -9.3774  -9.2348  -9.2324
    -9.0466  -9.0448  -8.9316  -8.3285  -8.3256  -7.9057  -7.9042  -7.8896
    -7.8495  -7.7750  -7.6179  -7.5824  -7.1494  -7.0872  -6.9638  -6.8939
    -6.8885  -6.8541  -6.5370  -6.5317  -6.2620  -5.3671  -5.3155  -5.1478
    -5.0697  -4.8181  -4.8108  -4.7568  -4.6161  -4.6106  -4.3656  -4.3313
    -3.6168  -3.1299  -3.0977  -2.5676  -2.0418  -1.9850  -1.4555  -1.4287
    -1.1099  -1.0762  -1.0167  -0.2926   0.6195   0.8686   0.9779   1.2180
     1.2595   1.3744   1.5897   1.6111   1.7808   2.0005

          k =-0.5000-0.8660 0.0000 ( 59292 PWs)   bands (ev):

   -73.1963 -73.0445 -45.1669 -44.5319 -44.5031 -44.4278 -44.3987 -44.3474
   -21.0631 -21.0424 -20.4764 -20.4659 -19.4338 -19.4255 -19.4160 -19.4128
   -19.0028 -18.9873 -18.3367 -18.3340 -18.3150 -18.3084 -17.8006 -17.7906
   -12.0799 -12.0792 -12.0610 -12.0582 -11.8859 -11.8743 -11.3390 -11.3263
   -10.2413 -10.2353 -10.1399 -10.1381 -10.1320 -10.1302  -8.6189  -8.5592
    -8.5560  -8.5436  -8.5397  -8.5287  -7.8714  -7.8678  -7.8634  -7.8608
    -7.8275  -7.8248  -7.7917  -7.7519  -7.5000  -7.4855  -6.6187  -6.6096
    -6.3628  -6.3527  -6.3047  -6.2952  -6.1984  -6.1881  -5.7235  -5.6946
    -5.5553  -5.5411  -4.7507  -4.7476  -4.6842  -4.6789  -3.9020  -3.8691
    -3.6119  -3.1296  -3.0990  -2.5613  -2.0403  -1.9857  -1.4550  -1.4294
    -1.1208  -1.0779  -1.0205  -0.3989   0.5785   0.9635   1.0408   1.1298
     1.4476   1.5847   1.6033   1.6052   1.7958   1.8481

          k =-0.1667 0.2887 0.0000 ( 59267 PWs)   bands (ev):

   -73.1963 -73.0445 -45.1669 -44.5318 -44.5031 -44.4278 -44.3987 -44.3474
   -21.2516 -20.6719 -20.6533 -20.1067 -20.1032 -19.5985 -19.5808 -19.1042
   -18.7082 -18.6900 -18.4596 -18.4574 -18.2002 -18.0921 -18.0795 -17.8541
   -12.4884 -12.2094 -12.2080 -11.8270 -11.8204 -11.6630 -11.2012 -11.1884
   -10.3962 -10.3722 -10.1260 -10.1155  -9.5958  -9.5902  -8.8470  -8.8292
    -8.8267  -8.7760  -8.7610  -8.6011  -8.2017  -8.0753  -8.0025  -7.8336
    -7.8317  -7.4455  -7.4393  -7.2808  -7.2702  -7.2152  -7.2083  -6.9635
    -6.9615  -6.5881  -6.5256  -6.1592  -6.1565  -5.8787  -5.4231  -5.3104
    -5.2748  -5.2046  -4.9132  -4.9102  -4.5177  -4.3625  -4.3437  -3.9860
    -3.6158  -3.1297  -3.0984  -2.5644  -2.0401  -1.9853  -1.4562  -1.4292
    -1.1113  -1.0755  -1.0177  -0.2979   0.5292   0.9137   0.9952   1.2280
     1.3405   1.4926   1.5339   1.5763   1.6195   1.8171

          k = 0.3333 0.0000 0.0000 ( 59267 PWs)   bands (ev):

   -73.1963 -73.0445 -45.1669 -44.5318 -44.5031 -44.4278 -44.3987 -44.3474
   -21.2512 -20.6897 -20.6355 -20.1100 -20.0984 -19.6171 -19.5640 -19.1061
   -18.7187 -18.6750 -18.4652 -18.4534 -18.1962 -18.1105 -18.0670 -17.8533
   -12.4882 -12.2132 -12.2040 -11.8335 -11.8159 -11.6609 -11.2141 -11.1763
   -10.3956 -10.3719 -10.1346 -10.1070  -9.5998  -9.5852  -8.8528  -8.8280
    -8.8199  -8.7921  -8.7462  -8.6019  -8.2032  -8.1076  -7.9698  -7.8328
    -7.8306  -7.4493  -7.4346  -7.2998  -7.2467  -7.2221  -7.2014  -6.9683
    -6.9580  -6.6216  -6.4980  -6.1611  -6.1538  -5.8856  -5.4230  -5.3193
    -5.2550  -5.2049  -4.9258  -4.9004  -4.5102  -4.3829  -4.3337  -3.9856
    -3.6140  -3.1293  -3.0982  -2.5645  -2.0417  -1.9853  -1.4547  -1.4290
    -1.1164  -1.0776  -1.0187  -0.3651   0.6165   0.9060   1.1279   1.2137
     1.3514   1.5093   1.5456   1.5732   1.5951   1.9346

          k =-0.1667-0.4811 0.0000 ( 59291 PWs)   bands (ev):

   -73.1963 -73.0445 -45.1669 -44.5319 -44.5031 -44.4278 -44.3987 -44.3474
   -21.1213 -20.9171 -20.7267 -20.1652 -19.8089 -19.4711 -19.3223 -19.1785
   -19.0195 -18.7827 -18.6458 -18.5489 -18.1539 -18.0941 -17.9259 -17.7284
   -12.3526 -12.1179 -12.0489 -11.9109 -11.6875 -11.6607 -11.5571 -10.9466
   -10.8944 -10.6277 -10.5275  -9.8647  -9.6977  -9.3407  -9.1154  -8.6787
    -8.6276  -8.5573  -8.3937  -8.3754  -8.1656  -8.1227  -8.0695  -8.0527
    -7.6930  -7.6278  -7.4994  -7.4779  -7.3605  -7.1755  -7.0723  -6.8669
    -6.6266  -6.3953  -6.1879  -6.1625  -5.9732  -5.9336  -5.7881  -5.7536
    -5.4560  -5.4001  -5.2167  -5.0476  -4.4543  -4.3543  -4.0934  -3.7739
    -3.6154  -3.1295  -3.0993  -2.5613  -2.0394  -1.9855  -1.4571  -1.4297
    -1.1125  -1.0750  -1.0187  -0.3028   0.4534   0.9301   1.0099   1.1297
     1.2374   1.3102   1.4661   1.8434   1.9167   2.1297

          k = 0.5000-0.0962 0.0000 ( 59291 PWs)   bands (ev):

   -73.1963 -73.0445 -45.1669 -44.5318 -44.5031 -44.4278 -44.3987 -44.3474
   -21.1189 -20.9236 -20.7225 -20.1635 -19.8089 -19.4733 -19.3270 -19.1742
   -19.0204 -18.7839 -18.6364 -18.5542 -18.1438 -18.1079 -17.9237 -17.7280
   -12.3517 -12.1184 -12.0472 -11.9145 -11.6969 -11.6489 -11.5592 -10.9466
   -10.8927 -10.6263 -10.5297  -9.8626  -9.6983  -9.3416  -9.1150  -8.6708
    -8.6281  -8.5555  -8.4015  -8.3948  -8.1640  -8.1076  -8.0803  -8.0431
    -7.6894  -7.6282  -7.4988  -7.4787  -7.3552  -7.1767  -7.0731  -6.8658
    -6.6270  -6.4039  -6.2001  -6.1620  -5.9619  -5.9329  -5.7875  -5.7556
    -5.4569  -5.4021  -5.1964  -5.0584  -4.4374  -4.3740  -4.0931  -3.7745
    -3.6120  -3.1296  -3.0990  -2.5614  -2.0408  -1.9856  -1.4550  -1.4294
    -1.1207  -1.0780  -1.0206  -0.3984   0.5710   0.9483   1.0342   1.1696
     1.2737   1.3310   1.6951   1.7943   1.9689   1.9931

          k =-0.3333-0.3849 0.0000 ( 59291 PWs)   bands (ev):

   -73.1963 -73.0445 -45.1669 -44.5318 -44.5031 -44.4278 -44.3987 -44.3474
   -21.1198 -20.9213 -20.7241 -20.1632 -19.8109 -19.4713 -19.3224 -19.1777
   -19.0228 -18.7823 -18.6379 -18.5534 -18.1459 -18.1054 -17.9238 -17.7282
   -12.3521 -12.1167 -12.0491 -11.9137 -11.6877 -11.6593 -11.5582 -10.9467
   -10.8921 -10.6257 -10.5305  -9.8634  -9.6984  -9.3409  -9.1158  -8.6733
    -8.6270  -8.5572  -8.3950  -8.3900  -8.1653  -8.1138  -8.0702  -8.0543
    -7.6896  -7.6270  -7.5042  -7.4737  -7.3537  -7.1768  -7.0736  -6.8733
    -6.6252  -6.3971  -6.1863  -6.1639  -5.9720  -5.9319  -5.7876  -5.7636
    -5.4568  -5.3971  -5.1984  -5.0582  -4.4396  -4.3717  -4.0928  -3.7741
    -3.6130  -3.1297  -3.0992  -2.5613  -2.0400  -1.9857  -1.4558  -1.4295
    -1.1180  -1.0770  -1.0200  -0.3694   0.5318   0.9510   1.0260   1.1379
     1.2358   1.3801   1.6069   1.8555   1.9181   1.9879

          k = 0.5000 0.0962 0.0000 ( 59291 PWs)   bands (ev):

   -73.1963 -73.0445 -45.1669 -44.5318 -44.5031 -44.4278 -44.3987 -44.3474
   -21.1189 -20.9236 -20.7225 -20.1635 -19.8089 -19.4733 -19.3270 -19.1742
   -19.0204 -18.7839 -18.6364 -18.5542 -18.1438 -18.1079 -17.9236 -17.7280
   -12.3517 -12.1184 -12.0471 -11.9145 -11.6969 -11.6489 -11.5592 -10.9466
   -10.8927 -10.6263 -10.5297  -9.8626  -9.6984  -9.3416  -9.1149  -8.6708
    -8.6281  -8.5555  -8.4015  -8.3948  -8.1640  -8.1076  -8.0803  -8.0431
    -7.6895  -7.6282  -7.4988  -7.4787  -7.3552  -7.1768  -7.0731  -6.8658
    -6.6269  -6.4039  -6.2001  -6.1619  -5.9619  -5.9328  -5.7876  -5.7556
    -5.4569  -5.4022  -5.1964  -5.0584  -4.4373  -4.3739  -4.0931  -3.7745
    -3.6120  -3.1296  -3.0990  -2.5614  -2.0408  -1.9856  -1.4550  -1.4294
    -1.1207  -1.0780  -1.0206  -0.3984   0.5710   0.9483   1.0342   1.1697
     1.2737   1.3310   1.6951   1.7942   1.9689   1.9936

          k =-0.3333 0.3849 0.0000 ( 59291 PWs)   bands (ev):

   -73.1963 -73.0445 -45.1669 -44.5318 -44.5031 -44.4278 -44.3987 -44.3474
   -21.1198 -20.9213 -20.7241 -20.1632 -19.8109 -19.4713 -19.3224 -19.1777
   -19.0228 -18.7823 -18.6378 -18.5534 -18.1459 -18.1053 -17.9238 -17.7282
   -12.3521 -12.1167 -12.0491 -11.9137 -11.6877 -11.6593 -11.5582 -10.9467
   -10.8921 -10.6257 -10.5305  -9.8634  -9.6984  -9.3409  -9.1158  -8.6733
    -8.6270  -8.5571  -8.3950  -8.3900  -8.1653  -8.1138  -8.0701  -8.0543
    -7.6895  -7.6270  -7.5042  -7.4736  -7.3538  -7.1768  -7.0737  -6.8733
    -6.6253  -6.3971  -6.1863  -6.1639  -5.9720  -5.9320  -5.7875  -5.7636
    -5.4567  -5.3971  -5.1984  -5.0582  -4.4396  -4.3718  -4.0928  -3.7741
    -3.6130  -3.1297  -3.0992  -2.5613  -2.0400  -1.9857  -1.4558  -1.4295
    -1.1180  -1.0770  -1.0200  -0.3694   0.5318   0.9510   1.0260   1.1379
     1.2358   1.3801   1.6070   1.8556   1.9181   1.9880

          k =-0.1667-0.0962 0.0000 ( 59226 PWs)   bands (ev):

   -73.1963 -73.0445 -45.1669 -44.5318 -44.5030 -44.4278 -44.3987 -44.3474
   -21.3180 -20.5403 -20.3514 -20.3419 -19.9964 -19.9817 -19.8101 -18.7372
   -18.7240 -18.3804 -18.3753 -18.3583 -18.2708 -18.2669 -18.0834 -18.0741
   -12.5099 -12.5086 -12.4126 -11.5872 -11.5791 -11.4288 -11.4271 -10.9314
   -10.9274  -9.9340  -9.9305  -9.6801  -9.3789  -9.3773  -9.2348  -9.2324
    -9.0466  -9.0448  -8.9316  -8.3286  -8.3256  -7.9057  -7.9042  -7.8896
    -7.8494  -7.7750  -7.6179  -7.5824  -7.1494  -7.0872  -6.9638  -6.8939
    -6.8884  -6.8541  -6.5369  -6.5316  -6.2621  -5.3671  -5.3155  -5.1477
    -5.0698  -4.8180  -4.8108  -4.7569  -4.6161  -4.6106  -4.3657  -4.3313
    -3.6168  -3.1299  -3.0977  -2.5676  -2.0418  -1.9850  -1.4555  -1.4287
    -1.1099  -1.0762  -1.0167  -0.2926   0.6195   0.8686   0.9779   1.2180
     1.2595   1.3744   1.5897   1.6111   1.7809   2.0006

          k =-0.0000-0.1925 0.0000 ( 59226 PWs)   bands (ev):

   -73.1963 -73.0445 -45.1669 -44.5318 -44.5031 -44.4278 -44.3987 -44.3474
   -21.3181 -20.5361 -20.3533 -20.3477 -19.9875 -19.9841 -19.8130 -18.7315
   -18.7267 -18.3974 -18.3742 -18.3596 -18.2597 -18.2595 -18.0826 -18.0791
   -12.5137 -12.5047 -12.4127 -11.5855 -11.5824 -11.4312 -11.4218 -10.9308
   -10.9296  -9.9327  -9.9315  -9.6806  -9.3799  -9.3754  -9.2342  -9.2333
    -9.0459  -9.0458  -8.9321  -8.3275  -8.3259  -7.9050  -7.9028  -7.8772
    -7.8493  -7.7765  -7.6187  -7.6083  -7.1107  -7.1052  -6.9627  -6.8925
    -6.8911  -6.8618  -6.5349  -6.5329  -6.2626  -5.3384  -5.3376  -5.1479
    -5.0696  -4.8406  -4.8178  -4.7580  -4.6005  -4.5962  -4.3534  -4.3490
    -3.6177  -3.1301  -3.0977  -2.5675  -2.0410  -1.9851  -1.4562  -1.4288
    -1.1076  -1.0752  -1.0162  -0.2524   0.5675   0.8680   0.9204   1.1930
     1.2745   1.3842   1.5959   1.6249   1.7117   2.0081

          k = 0.5000-0.8660 0.0000 ( 59292 PWs)   bands (ev):

   -73.1963 -73.0445 -45.1669 -44.5319 -44.5031 -44.4278 -44.3987 -44.3474
   -21.0631 -21.0425 -20.4764 -20.4659 -19.4338 -19.4255 -19.4161 -19.4128
   -19.0028 -18.9874 -18.3367 -18.3340 -18.3150 -18.3084 -17.8006 -17.7905
   -12.0798 -12.0792 -12.0610 -12.0583 -11.8859 -11.8742 -11.3389 -11.3263
   -10.2413 -10.2354 -10.1399 -10.1381 -10.1320 -10.1302  -8.6189  -8.5591
    -8.5560  -8.5436  -8.5398  -8.5287  -7.8714  -7.8678  -7.8634  -7.8608
    -7.8276  -7.8249  -7.7917  -7.7519  -7.5000  -7.4855  -6.6186  -6.6095
    -6.3628  -6.3527  -6.3047  -6.2952  -6.1982  -6.1881  -5.7235  -5.6946
    -5.5554  -5.5412  -4.7506  -4.7476  -4.6842  -4.6789  -3.9020  -3.8691
    -3.6119  -3.1296  -3.0990  -2.5613  -2.0403  -1.9857  -1.4550  -1.4294
    -1.1208  -1.0779  -1.0205  -0.3989   0.5785   0.9635   1.0408   1.1298
     1.4476   1.5847   1.6033   1.6051   1.7957   1.8481

          k =-1.0000 0.0000 0.0000 ( 59292 PWs)   bands (ev):

   -73.1963 -73.0445 -45.1669 -44.5319 -44.5031 -44.4278 -44.3987 -44.3474
   -21.0791 -21.0240 -20.4758 -20.4708 -19.4275 -19.4262 -19.4182 -19.4114
   -19.0163 -18.9747 -18.3746 -18.3397 -18.2960 -18.2849 -17.7980 -17.7944
   -12.1063 -12.0854 -12.0438 -12.0392 -11.8818 -11.8792 -11.3541 -11.3133
   -10.2452 -10.2438 -10.1346 -10.1336 -10.1307 -10.1301  -8.6435  -8.5785
    -8.5624  -8.5324  -8.5216  -8.4956  -7.8761  -7.8729  -7.8664  -7.8651
    -7.8189  -7.8180  -7.7812  -7.7765  -7.5174  -7.4699  -6.6139  -6.6118
    -6.3550  -6.3458  -6.3012  -6.2987  -6.2119  -6.1766  -5.7402  -5.6812
    -5.5704  -5.5264  -4.7990  -4.7666  -4.6537  -4.6485  -3.8855  -3.8835
    -3.6166  -3.1292  -3.0993  -2.5613  -2.0390  -1.9853  -1.4576  -1.4299
    -1.1098  -1.0741  -1.0180  -0.2647   0.4202   0.9198   1.0127   1.1257
     1.1938   1.5638   1.5971   1.6104   1.6391   1.9014

 ------ SPIN DOWN ----------


          k = 0.1667 0.2887 0.0000 ( 59267 PWs)   bands (ev):

   -69.0705 -68.9084 -41.2352 -40.3922 -40.3598 -40.3555 -40.2795 -40.2426
   -21.2473 -20.6662 -20.6509 -20.1024 -20.0992 -19.5926 -19.5785 -19.0998
   -18.7010 -18.6875 -18.4553 -18.4530 -18.1945 -18.0870 -18.0772 -17.8497
   -12.4862 -12.2068 -12.2055 -11.8243 -11.8186 -11.6608 -11.1980 -11.1865
   -10.3933 -10.3698 -10.1220 -10.1137  -9.5928  -9.5882  -8.8294  -8.8257
    -8.8189  -8.7724  -8.7595  -8.5986  -8.1992  -8.0462  -7.9948  -7.8309
    -7.8292  -7.4411  -7.4368  -7.2612  -7.2540  -7.2120  -7.2064  -6.9610
    -6.9588  -6.5626  -6.5189  -6.1562  -6.1539  -5.8600  -5.4197  -5.2832
    -5.2605  -5.2018  -4.8973  -4.8950  -4.4949  -4.3467  -4.3320  -3.9693
    -1.5601   0.1133   0.1878   0.2416   0.5486   1.1245   1.1528   1.2580
     1.3251   1.4319   1.5095   1.5258   1.5756   1.6291   1.7575   1.9193
     2.0720   2.1103   2.2270   2.2747   2.3696   2.4284

          k = 0.1667-0.4811 0.0000 ( 59291 PWs)   bands (ev):

   -69.0705 -68.9084 -41.2352 -40.3922 -40.3598 -40.3555 -40.2795 -40.2426
   -21.1167 -20.9134 -20.7227 -20.1609 -19.8048 -19.4668 -19.3179 -19.1743
   -19.0150 -18.7787 -18.6400 -18.5455 -18.1473 -18.0917 -17.9216 -17.7239
   -12.3502 -12.1155 -12.0466 -11.9087 -11.6847 -11.6587 -11.5548 -10.9438
   -10.8916 -10.6251 -10.5250  -9.8616  -9.6953  -9.3376  -9.1128  -8.6509
    -8.6248  -8.5543  -8.3913  -8.3612  -8.1632  -8.1064  -8.0662  -8.0509
    -7.6901  -7.6252  -7.4965  -7.4758  -7.3416  -7.1723  -7.0698  -6.8490
    -6.6231  -6.3777  -6.1677  -6.1597  -5.9584  -5.9302  -5.7853  -5.7352
    -5.4532  -5.3850  -5.1904  -5.0367  -4.4277  -4.3460  -4.0781  -3.7574
    -1.5529   0.1120   0.1858   0.2521   0.5358   1.0415   1.0989   1.1818
     1.2250   1.3317   1.4687   1.5310   1.6618   1.8271   1.9003   2.1051
     2.1403   2.2010   2.2446   2.2580   2.3710   2.3996

          k = 0.1667-0.0962 0.0000 ( 59226 PWs)   bands (ev):

   -69.0705 -68.9084 -41.2352 -40.3922 -40.3598 -40.3555 -40.2795 -40.2426
   -21.3138 -20.5356 -20.3473 -20.3384 -19.9911 -19.9782 -19.8067 -18.7313
   -18.7199 -18.3745 -18.3702 -18.3545 -18.2665 -18.2629 -18.0791 -18.0709
   -12.5075 -12.5063 -12.4103 -11.5846 -11.5771 -11.4262 -11.4245 -10.9286
   -10.9250  -9.9312  -9.9283  -9.6772  -9.3764  -9.3747  -9.2315  -9.2295
    -9.0444  -9.0422  -8.9101  -8.3252  -8.3225  -7.9030  -7.9014  -7.8643
    -7.8454  -7.7725  -7.5994  -7.5721  -7.1205  -7.0774  -6.9609  -6.8911
    -6.8863  -6.8434  -6.5339  -6.5293  -6.2593  -5.3373  -5.3031  -5.1447
    -5.0668  -4.7950  -4.7905  -4.7409  -4.6013  -4.5976  -4.3447  -4.3220
    -1.5675   0.1138   0.1896   0.2308   0.5652   1.0165   1.1616   1.2525
     1.3842   1.4732   1.5325   1.5748   1.6268   1.7057   1.8268   1.9211
     2.0268   2.0474   2.0912   2.2968   2.3594   2.3911

          k =-0.5000-0.8660 0.0000 ( 59292 PWs)   bands (ev):

   -69.0705 -68.9084 -41.2352 -40.3922 -40.3598 -40.3555 -40.2795 -40.2426
   -21.0570 -21.0401 -20.4722 -20.4625 -19.4277 -19.4207 -19.4119 -19.4101
   -18.9967 -18.9853 -18.3287 -18.3273 -18.3127 -18.3073 -17.7955 -17.7869
   -12.0762 -12.0753 -12.0598 -12.0571 -11.8833 -11.8726 -11.3358 -11.3244
   -10.2381 -10.2332 -10.1366 -10.1353 -10.1294 -10.1279  -8.5832  -8.5545
    -8.5525  -8.5419  -8.5387  -8.5216  -7.8683  -7.8646  -7.8612  -7.8583
    -7.8239  -7.8209  -7.7720  -7.7416  -7.4964  -7.4842  -6.6150  -6.6075
    -6.3338  -6.3246  -6.2932  -6.2864  -6.1945  -6.1859  -5.7035  -5.6843
    -5.5510  -5.5397  -4.7210  -4.7191  -4.6780  -4.6747  -3.8787  -3.8574
    -1.5388   0.1138   0.1875   0.2456   0.3380   1.0857   1.1080   1.2270
     1.4411   1.5166   1.5511   1.5885   1.6091   1.7036   1.8053   1.9253
     1.9474   2.2238   2.2332   2.2892   2.3312   2.4155

          k =-0.1667 0.2887 0.0000 ( 59267 PWs)   bands (ev):

   -69.0705 -68.9084 -41.2352 -40.3922 -40.3598 -40.3555 -40.2795 -40.2426
   -21.2473 -20.6662 -20.6509 -20.1024 -20.0992 -19.5926 -19.5785 -19.0998
   -18.7009 -18.6876 -18.4553 -18.4530 -18.1945 -18.0870 -18.0773 -17.8497
   -12.4861 -12.2068 -12.2055 -11.8242 -11.8186 -11.6608 -11.1980 -11.1865
   -10.3933 -10.3698 -10.1220 -10.1138  -9.5928  -9.5882  -8.8293  -8.8257
    -8.8189  -8.7724  -8.7596  -8.5986  -8.1992  -8.0462  -7.9948  -7.8309
    -7.8292  -7.4411  -7.4368  -7.2612  -7.2540  -7.2119  -7.2064  -6.9610
    -6.9589  -6.5626  -6.5189  -6.1562  -6.1539  -5.8599  -5.4198  -5.2832
    -5.2605  -5.2017  -4.8973  -4.8950  -4.4949  -4.3467  -4.3320  -3.9693
    -1.5601   0.1133   0.1878   0.2416   0.5486   1.1246   1.1528   1.2580
     1.3251   1.4318   1.5095   1.5258   1.5756   1.6291   1.7575   1.9193
     2.0721   2.1102   2.2270   2.2747   2.3696   2.4284

          k = 0.3333 0.0000 0.0000 ( 59267 PWs)   bands (ev):

   -69.0705 -68.9084 -41.2352 -40.3922 -40.3598 -40.3555 -40.2795 -40.2426
   -21.2470 -20.6836 -20.6334 -20.1058 -20.0945 -19.6108 -19.5619 -19.1015
   -18.7115 -18.6731 -18.4604 -18.4493 -18.1910 -18.1043 -18.0650 -17.8490
   -12.4858 -12.2111 -12.2011 -11.8310 -11.8139 -11.6589 -11.2104 -11.1746
   -10.3929 -10.3693 -10.1309 -10.1052  -9.5969  -9.5832  -8.8358  -8.8242
    -8.8120  -8.7884  -8.7449  -8.5993  -8.2006  -8.0755  -7.9654  -7.8301
    -7.8284  -7.4453  -7.4321  -7.2761  -7.2357  -7.2187  -7.1997  -6.9655
    -6.9555  -6.5923  -6.4933  -6.1580  -6.1515  -5.8643  -5.4197  -5.2945
    -5.2424  -5.2020  -4.9069  -4.8871  -4.4900  -4.3656  -4.3204  -3.9684
    -1.5512   0.1187   0.1898   0.2339   0.4124   0.9993   1.2415   1.3713
     1.4658   1.4864   1.4979   1.5328   1.6042   1.6394   1.6697   1.9628
     2.0367   2.1653   2.2171   2.2954   2.3653   2.4424

          k =-0.1667-0.4811 0.0000 ( 59291 PWs)   bands (ev):

   -69.0705 -68.9084 -41.2352 -40.3922 -40.3598 -40.3555 -40.2795 -40.2426
   -21.1167 -20.9134 -20.7227 -20.1609 -19.8048 -19.4668 -19.3179 -19.1743
   -19.0150 -18.7787 -18.6400 -18.5455 -18.1473 -18.0917 -17.9216 -17.7239
   -12.3503 -12.1154 -12.0466 -11.9087 -11.6847 -11.6587 -11.5548 -10.9438
   -10.8916 -10.6251 -10.5250  -9.8616  -9.6953  -9.3377  -9.1129  -8.6509
    -8.6248  -8.5543  -8.3913  -8.3612  -8.1631  -8.1064  -8.0663  -8.0509
    -7.6901  -7.6252  -7.4964  -7.4758  -7.3416  -7.1723  -7.0697  -6.8490
    -6.6232  -6.3777  -6.1678  -6.1597  -5.9584  -5.9302  -5.7852  -5.7352
    -5.4533  -5.3850  -5.1904  -5.0368  -4.4277  -4.3461  -4.0781  -3.7575
    -1.5529   0.1120   0.1858   0.2521   0.5358   1.0415   1.0989   1.1817
     1.2249   1.3317   1.4687   1.5310   1.6617   1.8271   1.9001   2.1048
     2.1391   2.1999   2.2431   2.2576   2.3680   2.3975

          k = 0.5000-0.0962 0.0000 ( 59291 PWs)   bands (ev):

   -69.0705 -68.9084 -41.2352 -40.3922 -40.3598 -40.3555 -40.2795 -40.2426
   -21.1146 -20.9192 -20.7190 -20.1594 -19.8048 -19.4687 -19.3220 -19.1706
   -19.0157 -18.7797 -18.6319 -18.5500 -18.1381 -18.1039 -17.9197 -17.7235
   -12.3493 -12.1160 -12.0450 -11.9121 -11.6939 -11.6474 -11.5566 -10.9440
   -10.8899 -10.6237 -10.5271  -9.8597  -9.6958  -9.3384  -9.1124  -8.6452
    -8.6252  -8.5526  -8.3951  -8.3779  -8.1616  -8.0956  -8.0764  -8.0418
    -7.6868  -7.6256  -7.4958  -7.4767  -7.3378  -7.1734  -7.0704  -6.8484
    -6.6235  -6.3830  -6.1770  -6.1593  -5.9502  -5.9297  -5.7846  -5.7367
    -5.4541  -5.3862  -5.1765  -5.0447  -4.4146  -4.3623  -4.0766  -3.7569
    -1.5389   0.1136   0.1885   0.2402   0.3451   1.0524   1.0732   1.1971
     1.3288   1.4594   1.5112   1.5561   1.6852   1.8427   1.9728   2.0319
     2.1238   2.1827   2.2187   2.2990   2.3386   2.3959

          k =-0.3333-0.3849 0.0000 ( 59291 PWs)   bands (ev):

   -69.0705 -68.9084 -41.2352 -40.3922 -40.3598 -40.3555 -40.2795 -40.2426
   -21.1153 -20.9172 -20.7204 -20.1592 -19.8065 -19.4670 -19.3180 -19.1735
   -19.0179 -18.7783 -18.6331 -18.5494 -18.1399 -18.1017 -17.9198 -17.7237
   -12.3498 -12.1142 -12.0469 -11.9111 -11.6851 -11.6574 -11.5558 -10.9440
   -10.8895 -10.6232 -10.5277  -9.8603  -9.6959  -9.3379  -9.1132  -8.6468
    -8.6242  -8.5541  -8.3924  -8.3719  -8.1629  -8.0999  -8.0668  -8.0524
    -7.6870  -7.6245  -7.5008  -7.4721  -7.3369  -7.1735  -7.0709  -6.8534
    -6.6219  -6.3787  -6.1675  -6.1607  -5.9571  -5.9288  -5.7848  -5.7421
    -5.4540  -5.3830  -5.1777  -5.0445  -4.4161  -4.3606  -4.0763  -3.7572
    -1.5436   0.1110   0.1874   0.2471   0.3955   1.0554   1.1375   1.1938
     1.2457   1.3602   1.4939   1.5517   1.7197   1.9414   1.9680   2.0586
     2.0931   2.1262   2.2055   2.2522   2.3459   2.4016

          k = 0.5000 0.0962 0.0000 ( 59291 PWs)   bands (ev):

   -69.0705 -68.9084 -41.2352 -40.3922 -40.3598 -40.3555 -40.2795 -40.2426
   -21.1146 -20.9192 -20.7190 -20.1594 -19.8048 -19.4687 -19.3220 -19.1706
   -19.0157 -18.7797 -18.6319 -18.5500 -18.1381 -18.1040 -17.9197 -17.7235
   -12.3493 -12.1160 -12.0450 -11.9121 -11.6939 -11.6473 -11.5566 -10.9440
   -10.8899 -10.6237 -10.5271  -9.8597  -9.6959  -9.3384  -9.1124  -8.6452
    -8.6252  -8.5526  -8.3951  -8.3779  -8.1616  -8.0956  -8.0764  -8.0417
    -7.6869  -7.6256  -7.4959  -7.4767  -7.3378  -7.1735  -7.0704  -6.8484
    -6.6234  -6.3830  -6.1769  -6.1592  -5.9502  -5.9296  -5.7847  -5.7367
    -5.4541  -5.3863  -5.1765  -5.0446  -4.4145  -4.3623  -4.0766  -3.7570
    -1.5389   0.1136   0.1885   0.2402   0.3451   1.0525   1.0732   1.1972
     1.3288   1.4594   1.5112   1.5561   1.6852   1.8426   1.9728   2.0318
     2.1238   2.1827   2.2187   2.2990   2.3387   2.3959

          k =-0.3333 0.3849 0.0000 ( 59291 PWs)   bands (ev):

   -69.0705 -68.9084 -41.2352 -40.3922 -40.3598 -40.3555 -40.2795 -40.2426
   -21.1153 -20.9172 -20.7204 -20.1592 -19.8065 -19.4670 -19.3180 -19.1735
   -19.0179 -18.7783 -18.6331 -18.5494 -18.1399 -18.1017 -17.9198 -17.7237
   -12.3498 -12.1142 -12.0470 -11.9111 -11.6851 -11.6574 -11.5557 -10.9440
   -10.8895 -10.6232 -10.5277  -9.8603  -9.6959  -9.3379  -9.1132  -8.6468
    -8.6243  -8.5540  -8.3924  -8.3719  -8.1629  -8.0999  -8.0667  -8.0524
    -7.6870  -7.6245  -7.5008  -7.4720  -7.3369  -7.1734  -7.0709  -6.8534
    -6.6220  -6.3787  -6.1675  -6.1607  -5.9571  -5.9289  -5.7847  -5.7421
    -5.4539  -5.3830  -5.1777  -5.0445  -4.4161  -4.3606  -4.0763  -3.7571
    -1.5436   0.1110   0.1874   0.2471   0.3955   1.0554   1.1376   1.1938
     1.2457   1.3602   1.4939   1.5517   1.7196   1.9414   1.9681   2.0586
     2.0932   2.1261   2.2058   2.2537   2.3463   2.4021

          k =-0.1667-0.0962 0.0000 ( 59226 PWs)   bands (ev):

   -69.0705 -68.9084 -41.2352 -40.3922 -40.3598 -40.3555 -40.2795 -40.2426
   -21.3138 -20.5356 -20.3473 -20.3384 -19.9911 -19.9782 -19.8067 -18.7313
   -18.7199 -18.3745 -18.3702 -18.3545 -18.2665 -18.2629 -18.0791 -18.0709
   -12.5075 -12.5063 -12.4103 -11.5845 -11.5771 -11.4262 -11.4246 -10.9285
   -10.9250  -9.9312  -9.9283  -9.6771  -9.3764  -9.3747  -9.2315  -9.2295
    -9.0443  -9.0422  -8.9101  -8.3252  -8.3225  -7.9030  -7.9013  -7.8643
    -7.8453  -7.7725  -7.5994  -7.5721  -7.1205  -7.0774  -6.9610  -6.8910
    -6.8862  -6.8434  -6.5338  -6.5292  -6.2594  -5.3373  -5.3031  -5.1446
    -5.0669  -4.7950  -4.7904  -4.7410  -4.6012  -4.5976  -4.3447  -4.3220
    -1.5675   0.1138   0.1896   0.2308   0.5652   1.0165   1.1615   1.2525
     1.3842   1.4732   1.5325   1.5747   1.6268   1.7057   1.8268   1.9206
     2.0268   2.0472   2.0908   2.2960   2.3580   2.3875

          k =-0.0000-0.1925 0.0000 ( 59226 PWs)   bands (ev):

   -69.0705 -68.9084 -41.2352 -40.3922 -40.3598 -40.3555 -40.2795 -40.2426
   -21.3139 -20.5318 -20.3488 -20.3438 -19.9836 -19.9800 -19.8092 -18.7266
   -18.7220 -18.3898 -18.3692 -18.3551 -18.2573 -18.2563 -18.0786 -18.0750
   -12.5119 -12.5021 -12.4102 -11.5829 -11.5800 -11.4290 -11.4192 -10.9281
   -10.9269  -9.9305  -9.9288  -9.6775  -9.3768  -9.3734  -9.2312  -9.2304
    -9.0435  -9.0433  -8.9104  -8.3243  -8.3227  -7.9022  -7.9005  -7.8568
    -7.8432  -7.7738  -7.5995  -7.5910  -7.0916  -7.0914  -6.9600  -6.8899
    -6.8885  -6.8493  -6.5323  -6.5303  -6.2598  -5.3198  -5.3161  -5.1448
    -5.0666  -4.8126  -4.7929  -4.7421  -4.5916  -4.5858  -4.3368  -4.3344
    -1.5718   0.1108   0.1888   0.2334   0.6675   1.0825   1.1425   1.1567
     1.3107   1.4723   1.5269   1.5271   1.6047   1.6894   1.8124   1.9575
     1.9875   2.0751   2.1372   2.2660   2.3598   2.3985

          k = 0.5000-0.8660 0.0000 ( 59292 PWs)   bands (ev):

   -69.0705 -68.9084 -41.2352 -40.3922 -40.3598 -40.3555 -40.2795 -40.2426
   -21.0570 -21.0401 -20.4722 -20.4625 -19.4277 -19.4207 -19.4119 -19.4100
   -18.9966 -18.9853 -18.3287 -18.3273 -18.3127 -18.3073 -17.7955 -17.7869
   -12.0762 -12.0753 -12.0598 -12.0572 -11.8833 -11.8726 -11.3358 -11.3244
   -10.2382 -10.2332 -10.1365 -10.1353 -10.1294 -10.1279  -8.5832  -8.5544
    -8.5524  -8.5419  -8.5388  -8.5216  -7.8683  -7.8646  -7.8612  -7.8583
    -7.8240  -7.8209  -7.7720  -7.7416  -7.4964  -7.4842  -6.6149  -6.6074
    -6.3337  -6.3246  -6.2932  -6.2864  -6.1943  -6.1859  -5.7035  -5.6843
    -5.5510  -5.5398  -4.7210  -4.7190  -4.6780  -4.6747  -3.8787  -3.8575
    -1.5388   0.1138   0.1875   0.2456   0.3380   1.0857   1.1080   1.2270
     1.4411   1.5166   1.5511   1.5884   1.6090   1.7036   1.8053   1.9253
     1.9473   2.2238   2.2335   2.2893   2.3312   2.4158

          k =-1.0000 0.0000 0.0000 ( 59292 PWs)   bands (ev):

   -69.0705 -68.9084 -41.2352 -40.3922 -40.3598 -40.3555 -40.2795 -40.2426
   -21.0729 -21.0220 -20.4714 -20.4669 -19.4227 -19.4218 -19.4143 -19.4072
   -19.0099 -18.9728 -18.3654 -18.3328 -18.2947 -18.2841 -17.7936 -17.7898
   -12.1032 -12.0815 -12.0422 -12.0383 -11.8796 -11.8769 -11.3504 -11.3116
   -10.2425 -10.2405 -10.1315 -10.1311 -10.1280 -10.1280  -8.6072  -8.5736
    -8.5592  -8.5313  -8.5207  -8.4913  -7.8726  -7.8698  -7.8636  -7.8621
    -7.8158  -7.8148  -7.7645  -7.7590  -7.5135  -7.4687  -6.6114  -6.6089
    -6.3264  -6.3248  -6.2909  -6.2856  -6.2076  -6.1746  -5.7202  -5.6700
    -5.5659  -5.5251  -4.7645  -4.7344  -4.6507  -4.6460  -3.8703  -3.8668
    -1.5574   0.1159   0.1848   0.2553   0.6273   1.0428   1.0751   1.1444
     1.3818   1.4640   1.4957   1.5036   1.5851   1.6386   1.7349   1.8200
     2.0758   2.2659   2.2848   2.2851   2.3619   2.3897

     the Fermi energy is    -0.5122 ev

!    total energy              =   -1133.74507537 Ry

     total all-electron energy =     -6753.420778 Ry
     estimated scf accuracy    <       0.00000006 Ry
     smearing contrib. (-TS)   =      -0.00000000 Ry
     internal energy E=F+TS    =   -1133.74507537 Ry

     The total energy is F=E-TS. E is the sum of the following terms:
     one-electron contribution =   -3990.20490606 Ry
     hartree contribution      =    2023.05752394 Ry
     xc contribution           =    -186.12838068 Ry
     ewald contribution        =    1378.90965208 Ry
     DFT-D3 Dispersion         =      -0.12200897 Ry
     one-center paw contrib.   =    -359.25695569 Ry

     total magnetization       =    10.00 Bohr mag/cell
     absolute magnetization    =    10.02 Bohr mag/cell

     convergence has been achieved in  16 iterations

     Writing output data file ./mytmp/Crdimer0.11-0.5.save/
 
     init_run     :     18.13s CPU     19.28s WALL (       1 calls)
     electrons    :    531.30s CPU    565.34s WALL (       1 calls)

     Called by init_run:
     wfcinit      :     13.46s CPU     14.10s WALL (       1 calls)
     potinit      :      1.49s CPU      1.57s WALL (       1 calls)
     hinit0       :      1.50s CPU      1.62s WALL (       1 calls)

     Called by electrons:
     c_bands      :    420.17s CPU    444.63s WALL (      16 calls)
     sum_band     :     86.13s CPU     91.81s WALL (      16 calls)
     v_of_rho     :      5.15s CPU      5.59s WALL (      17 calls)
     newd         :     10.63s CPU     14.10s WALL (      17 calls)
     PAW_pot      :      8.28s CPU      8.40s WALL (      17 calls)
     mix_rho      :      1.13s CPU      1.17s WALL (      16 calls)

     Called by c_bands:
     init_us_2    :      5.76s CPU      5.80s WALL (     990 calls)
     cegterg      :    406.10s CPU    430.47s WALL (     480 calls)

     Called by *egterg:
     cdiaghg      :     24.99s CPU     39.78s WALL (    2892 calls)
     h_psi        :    262.56s CPU    271.52s WALL (    2922 calls)
     s_psi        :     29.21s CPU     29.27s WALL (    2922 calls)
     g_psi        :      0.73s CPU      0.75s WALL (    2412 calls)

     Called by h_psi:
     h_psi:calbec :     30.20s CPU     30.86s WALL (    2922 calls)
     vloc_psi     :    200.46s CPU    208.65s WALL (    2922 calls)
     add_vuspsi   :     29.63s CPU     29.74s WALL (    2922 calls)

     General routines
     calbec       :     40.94s CPU     41.76s WALL (    3402 calls)
     fft          :      4.60s CPU      5.67s WALL (     419 calls)
     ffts         :      0.13s CPU      0.13s WALL (      66 calls)
     fftw         :    208.06s CPU    216.41s WALL (  272940 calls)
     interpolate  :      0.47s CPU      0.51s WALL (      34 calls)
 
     Parallel routines
     fft_scatt_xy :     33.89s CPU     35.06s WALL (  273425 calls)
     fft_scatt_yz :     81.24s CPU     85.98s WALL (  273425 calls)
 
     PWSCF        :   9m11.42s CPU   9m48.67s WALL

 
   This run was terminated on:  11:58: 6  31Mar2021            

=------------------------------------------------------------------------------=
   JOB DONE.
=------------------------------------------------------------------------------=
