
     Program PWSCF v.6.7MaX starts on 31Mar2021 at  9:51:41 

     This program is part of the open-source Quantum ESPRESSO suite
     for quantum simulation of materials; please cite
         "P. Giannozzi et al., J. Phys.:Condens. Matter 21 395502 (2009);
         "P. Giannozzi et al., J. Phys.:Condens. Matter 29 465901 (2017);
          URL http://www.quantum-espresso.org", 
     in publications or presentations arising from this work. More details at
     http://www.quantum-espresso.org/quote

     Parallel version (MPI), running on    48 processors

     MPI processes distributed on     1 nodes
     R & G space division:  proc/nbgrp/npool/nimage =      48
     Reading input from Crdimer0.1-0.0.scf.in

     Current dimensions of program PWSCF are:
     Max number of different atomic species (ntypx) = 10
     Max number of k-points (npk) =  40000
     Max angular momentum in pseudopotentials (lmaxx) =  3
     file N.pbe-n-kjpaw_psl.1.0.0.UPF: wavefunction(s)  2S renormalized
     file Cr.pbe-spn-kjpaw_psl.1.0.0.UPF: wavefunction(s)  3S 3P 3D renormalized
     file Cr.pbe-spn-kjpaw_psl.1.0.0.UPF: wavefunction(s)  3S 3P 3D renormalized

     --------------------------------------------
     Parameters for DFT-D3 Dispersion Correction:
     --------------------------------------------
       Reference C6 values for interpolation: 

         atom   Coordination number   C6
         B          0.000           214.36
         B          0.971           150.74
         B          1.944           106.23
         B          2.913            62.89
         B          4.586            56.06
         N          0.000            50.54
         N          0.994            44.25
         N          2.014            39.35
         N          2.990            31.16
         Cr1        0.000          1381.48
         Cr1        1.827           571.38
         Cr1       10.619           306.69
         Cr2        0.000          1381.48
         Cr2        1.827           571.38
         Cr2       10.619           306.69

       Values used:

         atom   Coordination number  R0_AB[au]  C6      C8
         B          3.336            3.039     62.89   2506.00
         B          3.336            3.039     62.89   2506.00
         B          3.388            3.039     62.85   2504.47
         B          3.336            3.039     62.89   2506.00
         B          3.340            3.039     62.89   2505.88
         B          3.340            3.039     62.89   2505.88
         N          3.134            2.478     31.22    688.70
         N          3.134            2.478     31.22    688.70
         N          3.159            2.478     31.21    688.48
         N          3.135            2.478     31.22    688.69
         N          3.135            2.478     31.22    688.68
         N          3.134            2.478     31.22    688.69
         N          3.135            2.478     31.22    688.69
         N          3.134            2.478     31.22    688.70
         N          3.146            2.478     31.21    688.59
         B          3.335            3.039     62.89   2506.01
         B          3.336            3.039     62.89   2506.00
         B          3.340            3.039     62.89   2505.88
         B          3.340            3.039     62.89   2505.88
         B          3.336            3.039     62.89   2506.00
         B          3.335            3.039     62.89   2506.01
         N          3.135            2.478     31.22    688.69
         B          3.335            3.039     62.89   2506.01
         B          3.335            3.039     62.89   2506.01
         B          3.349            3.039     62.88   2505.66
         N          3.134            2.478     31.22    688.69
         N          3.134            2.478     31.22    688.70
         N          3.138            2.478     31.22    688.66
         N          3.138            2.478     31.22    688.66
         N          3.159            2.478     31.21    688.48
         N          3.135            2.478     31.22    688.69
         B          3.349            3.039     62.88   2505.66
         Cr1        1.095            3.252    610.22  56316.61
         Cr2        1.095            3.252    610.22  56316.61

         Molecular C6 ( Ry / a.u.^6 ) =     68873.65


     Subspace diagonalization in iterative solution of the eigenvalue problem:
     one sub-group per band group will be used
     scalapack distributed-memory algorithm (size of sub-group:  6*  6 procs)

 
     Parallelization info
     --------------------
     sticks:   dense  smooth     PW     G-vecs:    dense   smooth      PW
     Min         235      98     26                36277     9874    1408
     Max         236      99     27                36282     9883    1425
     Sum       11311    4741   1285              1741401   474235   68095
 


     bravais-lattice index     =            4
     lattice parameter (alat)  =      18.9275  a.u.
     unit-cell volume          =   10553.3021 (a.u.)^3
     number of atoms/cell      =           34
     number of atomic types    =            4
     number of electrons       =       156.00
     number of Kohn-Sham states=           94
     kinetic-energy cutoff     =      48.0000  Ry
     charge density cutoff     =     457.0000  Ry
     scf convergence threshold =      1.0E-07
     mixing beta               =       0.5000
     number of iterations used =            8  plain     mixing
     Exchange-correlation= SLA  PW   PBX  PBC
                           (   1   4   3   4   0   0   0)

     celldm(1)=  18.927497  celldm(2)=   0.000000  celldm(3)=   1.797125
     celldm(4)=   0.000000  celldm(5)=   0.000000  celldm(6)=   0.000000

     crystal axes: (cart. coord. in units of alat)
               a(1) = (   1.000000   0.000000   0.000000 )  
               a(2) = (  -0.500000   0.866025   0.000000 )  
               a(3) = (   0.000000   0.000000   1.797125 )  

     reciprocal axes: (cart. coord. in units 2 pi/alat)
               b(1) = (  1.000000  0.577350  0.000000 )  
               b(2) = (  0.000000  1.154701  0.000000 )  
               b(3) = (  0.000000  0.000000  0.556444 )  


     PseudoPot. # 1 for B  read from file:
     /home/sf05/q-e-qe-6.7MaX-Release/pseudo/B.pbe-n-kjpaw_psl.1.0.0.UPF
     MD5 check sum: d9c678ba5d3b2fd7b74e61139c9288d8
     Pseudo is Projector augmented-wave + core cor, Zval =  3.0
     Generated using "atomic" code by A. Dal Corso  v.5.1.2
     Shape of augmentation charge: PSQ
     Using radial grid of 1059 points,  4 beta functions with: 
                l(1) =   0
                l(2) =   0
                l(3) =   1
                l(4) =   1
     Q(r) pseudized with 0 coefficients 


     PseudoPot. # 2 for N  read from file:
     /home/sf05/q-e-qe-6.7MaX-Release/pseudo/N.pbe-n-kjpaw_psl.1.0.0.UPF
     MD5 check sum: e0e4e94a9c4025c5b51bd7d8793849bd
     Pseudo is Projector augmented-wave + core cor, Zval =  5.0
     Generated using "atomic" code by A. Dal Corso  v.5.1.2
     Shape of augmentation charge: PSQ
     Using radial grid of 1085 points,  4 beta functions with: 
                l(1) =   0
                l(2) =   0
                l(3) =   1
                l(4) =   1
     Q(r) pseudized with 0 coefficients 


     PseudoPot. # 3 for Cr read from file:
     /home/sf05/q-e-qe-6.7MaX-Release/pseudo/Cr.pbe-spn-kjpaw_psl.1.0.0.UPF
     MD5 check sum: 198f1a2427a48552563eee314eba32ba
     Pseudo is Projector augmented-wave + core cor, Zval = 14.0
     Generated using &quot;atomic&quot; code by A. Dal Corso  v.6.3
     Shape of augmentation charge: PSQ
     Using radial grid of 1183 points,  6 beta functions with: 
                l(1) =   0
                l(2) =   0
                l(3) =   1
                l(4) =   1
                l(5) =   2
                l(6) =   2
     Q(r) pseudized with 0 coefficients 


     PseudoPot. # 4 for Cr read from file:
     /home/sf05/q-e-qe-6.7MaX-Release/pseudo/Cr.pbe-spn-kjpaw_psl.1.0.0.UPF
     MD5 check sum: 198f1a2427a48552563eee314eba32ba
     Pseudo is Projector augmented-wave + core cor, Zval = 14.0
     Generated using &quot;atomic&quot; code by A. Dal Corso  v.6.3
     Shape of augmentation charge: PSQ
     Using radial grid of 1183 points,  6 beta functions with: 
                l(1) =   0
                l(2) =   0
                l(3) =   1
                l(4) =   1
                l(5) =   2
                l(6) =   2
     Q(r) pseudized with 0 coefficients 


     atomic species   valence    mass     pseudopotential
        B              3.00    10.81100     B ( 1.00)
        N              5.00    14.00674     N ( 1.00)
        Cr1           14.00    51.99610     Cr( 1.00)
        Cr2           14.00    51.99610     Cr( 1.00)

     Starting magnetic structure 
     atomic species   magnetization
        B            0.000
        N            0.000
        Cr1          1.000
        Cr2          1.000

     No symmetry found



   Cartesian axes

     site n.     atom                  positions (alat units)
         1           B   tau(   1) = (  -0.1250000   0.2165064   0.8985623  )
         2           B   tau(   2) = (   0.3750000   0.6495191   0.8985623  )
         3           B   tau(   3) = (   0.2500000   0.0000000   0.8985623  )
         4           B   tau(   4) = (   0.7500000   0.0000000   0.8985623  )
         5           B   tau(   5) = (   0.1250000   0.2165064   0.8985623  )
         6           B   tau(   6) = (  -0.3750000   0.6495191   0.8985623  )
         7           N   tau(   7) = (   0.7500005   0.2886748   0.8985623  )
         8           N   tau(   8) = (   0.3750005   0.5051812   0.8985623  )
         9           N   tau(   9) = (   0.3750005   0.0721685   0.8985623  )
        10           N   tau(  10) = (   0.6250005   0.0721685   0.8985623  )
        11           N   tau(  11) = (   0.2500005   0.2886748   0.8985623  )
        12           N   tau(  12) = (   0.6250005   0.5051812   0.8985623  )
        13           N   tau(  13) = (   0.0000005   0.2886748   0.8985623  )
        14           N   tau(  14) = (   0.2500005   0.7216875   0.8985623  )
        15           N   tau(  15) = (  -0.2499995   0.7216875   0.8985623  )
        16           B   tau(  16) = (   0.0000000   0.4330127   0.8985623  )
        17           B   tau(  17) = (   0.1250000   0.6495191   0.8985623  )
        18           B   tau(  18) = (  -0.1250000   0.6495191   0.8985623  )
        19           B   tau(  19) = (   0.3750000   0.2165064   0.8985623  )
        20           B   tau(  20) = (   0.6250000   0.2165064   0.8985623  )
        21           B   tau(  21) = (   0.5000000   0.4330127   0.8985623  )
        22           N   tau(  22) = (   0.5000005   0.2886748   0.8985623  )
        23           B   tau(  23) = (  -0.2500000   0.4330127   0.8985623  )
        24           B   tau(  24) = (   0.2500000   0.4330127   0.8985623  )
        25           B   tau(  25) = (   0.5000000   0.0000000   0.8985623  )
        26           N   tau(  26) = (  -0.1249995   0.5051812   0.8985623  )
        27           N   tau(  27) = (   0.1250005   0.5051812   0.8985623  )
        28           N   tau(  28) = (   0.0000005   0.7216875   0.8985623  )
        29           N   tau(  29) = (   0.5000005   0.7216875   0.8985623  )
        30           N   tau(  30) = (   0.1250005   0.0721685   0.8985623  )
        31           N   tau(  31) = (   0.8750005   0.0721685   0.8985623  )
        32           B   tau(  32) = (   0.0000000   0.0000000   0.8985623  )
        33           Cr1 tau(  33) = (   0.3500000   0.0000000   1.2040735  )
        34           Cr2 tau(  34) = (   0.1500000   0.0000000   1.2040735  )

     number of k points=    15  Gaussian smearing, width (Ry)=  0.0000
                       cart. coord. in units 2pi/alat
        k(    1) = (   0.1666667   0.2886751   0.0000000), wk =   0.0740741
        k(    2) = (   0.1666667  -0.4811252   0.0000000), wk =   0.0740741
        k(    3) = (   0.1666667  -0.0962250   0.0000000), wk =   0.0740741
        k(    4) = (  -0.5000000  -0.8660254   0.0000000), wk =   0.0370370
        k(    5) = (  -0.1666667   0.2886751   0.0000000), wk =   0.0740741
        k(    6) = (   0.3333333   0.0000000   0.0000000), wk =   0.0740741
        k(    7) = (  -0.1666667  -0.4811252   0.0000000), wk =   0.0740741
        k(    8) = (   0.5000000  -0.0962250   0.0000000), wk =   0.0740741
        k(    9) = (  -0.3333333  -0.3849002   0.0000000), wk =   0.0740741
        k(   10) = (   0.5000000   0.0962250   0.0000000), wk =   0.0740741
        k(   11) = (  -0.3333333   0.3849002   0.0000000), wk =   0.0740741
        k(   12) = (  -0.1666667  -0.0962250   0.0000000), wk =   0.0740741
        k(   13) = (  -0.0000000  -0.1924501   0.0000000), wk =   0.0740741
        k(   14) = (   0.5000000  -0.8660254   0.0000000), wk =   0.0370370
        k(   15) = (  -1.0000000   0.0000000   0.0000000), wk =   0.0370370

     Dense  grid:  1741401 G-vectors     FFT dimensions: ( 135, 135, 240)

     Smooth grid:   474235 G-vectors     FFT dimensions: (  90,  90, 160)

     Estimated max dynamical RAM per process >     218.62 MB

     Estimated total dynamical RAM >      10.25 GB
     Generating pointlists ...
     new r_m :   0.0595 (alat units)  1.1269 (a.u.) for type    1
     new r_m :   0.0595 (alat units)  1.1269 (a.u.) for type    2
     new r_m :   0.0825 (alat units)  1.5615 (a.u.) for type    3
     new r_m :   0.0825 (alat units)  1.5615 (a.u.) for type    4

     Initial potential from superposition of free atoms

     starting charge  155.99382, renormalised to  156.00000

     negative rho (up, down):  6.870E-03 4.655E-04
     Starting wfcs are  148 randomized atomic wfcs
     Checking if some PAW data can be deallocated... 

     total cpu time spent up to now is       36.0 secs

     Self-consistent Calculation

     iteration #  1     ecut=    48.00 Ry     beta= 0.50
     Davidson diagonalization with overlap
     ethr =  1.00E-02,  avg # of iterations =  4.9

     negative rho (up, down):  5.398E-01 2.877E-03

     total cpu time spent up to now is       81.1 secs

     total energy              =   -1128.36681634 Ry
     estimated scf accuracy    <      32.27403474 Ry

     total magnetization       =    12.00 Bohr mag/cell
     absolute magnetization    =    16.09 Bohr mag/cell

     iteration #  2     ecut=    48.00 Ry     beta= 0.50
     Davidson diagonalization with overlap
     ethr =  1.00E-02,  avg # of iterations =  2.4

     negative rho (up, down):  1.022E+00 1.787E-02

     total cpu time spent up to now is      113.9 secs

     total energy              =   -1127.08663926 Ry
     estimated scf accuracy    <      24.28894324 Ry

     total magnetization       =     6.15 Bohr mag/cell
     absolute magnetization    =     6.56 Bohr mag/cell

     iteration #  3     ecut=    48.00 Ry     beta= 0.50
     Davidson diagonalization with overlap
     ethr =  1.00E-02,  avg # of iterations =  5.7

     negative rho (up, down):  1.358E+00 3.587E-02

     total cpu time spent up to now is      157.2 secs

     total energy              =   -1128.36327865 Ry
     estimated scf accuracy    <      55.45483398 Ry

     total magnetization       =     8.00 Bohr mag/cell
     absolute magnetization    =     8.22 Bohr mag/cell

     iteration #  4     ecut=    48.00 Ry     beta= 0.50
     Davidson diagonalization with overlap
     ethr =  1.00E-02,  avg # of iterations =  2.0

     negative rho (up, down):  7.924E-01 2.231E-02

     total cpu time spent up to now is      187.1 secs

     total energy              =   -1133.26041788 Ry
     estimated scf accuracy    <       2.34878983 Ry

     total magnetization       =    11.56 Bohr mag/cell
     absolute magnetization    =    11.75 Bohr mag/cell

     iteration #  5     ecut=    48.00 Ry     beta= 0.50
     Davidson diagonalization with overlap
     ethr =  1.51E-03,  avg # of iterations =  7.6

     negative rho (up, down):  1.836E-01 7.995E-03

     total cpu time spent up to now is      223.0 secs

     total energy              =   -1133.43062396 Ry
     estimated scf accuracy    <       1.60705749 Ry

     total magnetization       =    10.00 Bohr mag/cell
     absolute magnetization    =    10.12 Bohr mag/cell

     iteration #  6     ecut=    48.00 Ry     beta= 0.50
     Davidson diagonalization with overlap
     ethr =  1.03E-03,  avg # of iterations =  5.5

     negative rho (up, down):  9.537E-03 5.220E-03

     total cpu time spent up to now is      256.7 secs

     total energy              =   -1133.54794191 Ry
     estimated scf accuracy    <       0.49567379 Ry

     total magnetization       =    10.00 Bohr mag/cell
     absolute magnetization    =    10.04 Bohr mag/cell

     iteration #  7     ecut=    48.00 Ry     beta= 0.50
     Davidson diagonalization with overlap
     ethr =  3.18E-04,  avg # of iterations =  9.9

     negative rho (up, down):  1.183E-02 6.109E-03

     total cpu time spent up to now is      297.8 secs

     total energy              =   -1133.61222030 Ry
     estimated scf accuracy    <       0.21079813 Ry

     total magnetization       =    10.00 Bohr mag/cell
     absolute magnetization    =    10.07 Bohr mag/cell

     iteration #  8     ecut=    48.00 Ry     beta= 0.50
     Davidson diagonalization with overlap
     ethr =  1.35E-04,  avg # of iterations =  3.1

     negative rho (up, down):  2.194E-02 4.968E-03

     total cpu time spent up to now is      328.6 secs

     total energy              =   -1133.62631957 Ry
     estimated scf accuracy    <       0.02475725 Ry

     total magnetization       =    10.00 Bohr mag/cell
     absolute magnetization    =    10.04 Bohr mag/cell

     iteration #  9     ecut=    48.00 Ry     beta= 0.50
     Davidson diagonalization with overlap
     ethr =  1.59E-05,  avg # of iterations =  8.9

     negative rho (up, down):  1.852E-02 4.223E-03

     total cpu time spent up to now is      371.1 secs

     total energy              =   -1133.62959323 Ry
     estimated scf accuracy    <       0.00961452 Ry

     total magnetization       =    10.00 Bohr mag/cell
     absolute magnetization    =    10.02 Bohr mag/cell

     iteration # 10     ecut=    48.00 Ry     beta= 0.50
     Davidson diagonalization with overlap
     c_bands:  1 eigenvalues not converged
     c_bands:  1 eigenvalues not converged
     c_bands:  1 eigenvalues not converged
     c_bands:  1 eigenvalues not converged
     c_bands:  1 eigenvalues not converged
     ethr =  6.16E-06,  avg # of iterations =  9.4

     negative rho (up, down):  5.693E-03 3.880E-03

     total cpu time spent up to now is      408.5 secs

     total energy              =   -1133.63288614 Ry
     estimated scf accuracy    <       0.00386354 Ry

     total magnetization       =    10.00 Bohr mag/cell
     absolute magnetization    =    10.02 Bohr mag/cell

     iteration # 11     ecut=    48.00 Ry     beta= 0.50
     Davidson diagonalization with overlap
     c_bands:  2 eigenvalues not converged
     c_bands:  2 eigenvalues not converged
     ethr =  2.48E-06,  avg # of iterations = 10.6

     negative rho (up, down):  3.877E-03 3.913E-03

     total cpu time spent up to now is      452.6 secs

     total energy              =   -1133.63346229 Ry
     estimated scf accuracy    <       0.00088244 Ry

     total magnetization       =    10.00 Bohr mag/cell
     absolute magnetization    =    10.02 Bohr mag/cell

     iteration # 12     ecut=    48.00 Ry     beta= 0.50
     Davidson diagonalization with overlap
     ethr =  5.66E-07,  avg # of iterations =  4.5

     negative rho (up, down):  3.441E-03 3.955E-03

     total cpu time spent up to now is      484.9 secs

     total energy              =   -1133.63368386 Ry
     estimated scf accuracy    <       0.00013511 Ry

     total magnetization       =    10.00 Bohr mag/cell
     absolute magnetization    =    10.02 Bohr mag/cell

     iteration # 13     ecut=    48.00 Ry     beta= 0.50
     Davidson diagonalization with overlap
     c_bands:  1 eigenvalues not converged
     ethr =  8.66E-08,  avg # of iterations =  5.6

     negative rho (up, down):  3.298E-03 3.939E-03

     total cpu time spent up to now is      520.8 secs

     total energy              =   -1133.63376487 Ry
     estimated scf accuracy    <       0.00006213 Ry

     total magnetization       =    10.00 Bohr mag/cell
     absolute magnetization    =    10.02 Bohr mag/cell

     iteration # 14     ecut=    48.00 Ry     beta= 0.50
     Davidson diagonalization with overlap
     ethr =  3.98E-08,  avg # of iterations =  3.8

     negative rho (up, down):  3.247E-03 3.943E-03

     total cpu time spent up to now is      552.1 secs

     total energy              =   -1133.63379399 Ry
     estimated scf accuracy    <       0.00001047 Ry

     total magnetization       =    10.00 Bohr mag/cell
     absolute magnetization    =    10.02 Bohr mag/cell

     iteration # 15     ecut=    48.00 Ry     beta= 0.50
     Davidson diagonalization with overlap
     ethr =  6.71E-09,  avg # of iterations =  3.6

     negative rho (up, down):  3.238E-03 3.958E-03

     total cpu time spent up to now is      584.5 secs

     total energy              =   -1133.63380695 Ry
     estimated scf accuracy    <       0.00000582 Ry

     total magnetization       =    10.00 Bohr mag/cell
     absolute magnetization    =    10.02 Bohr mag/cell

     iteration # 16     ecut=    48.00 Ry     beta= 0.50
     Davidson diagonalization with overlap
     ethr =  3.73E-09,  avg # of iterations =  4.0

     negative rho (up, down):  3.239E-03 3.968E-03

     total cpu time spent up to now is      617.7 secs

     total energy              =   -1133.63381473 Ry
     estimated scf accuracy    <       0.00000199 Ry

     total magnetization       =    10.00 Bohr mag/cell
     absolute magnetization    =    10.02 Bohr mag/cell

     iteration # 17     ecut=    48.00 Ry     beta= 0.50
     Davidson diagonalization with overlap
     ethr =  1.28E-09,  avg # of iterations =  4.8

     negative rho (up, down):  3.230E-03 3.965E-03

     total cpu time spent up to now is      652.7 secs

     total energy              =   -1133.63382133 Ry
     estimated scf accuracy    <       0.00000049 Ry

     total magnetization       =    10.00 Bohr mag/cell
     absolute magnetization    =    10.02 Bohr mag/cell

     iteration # 18     ecut=    48.00 Ry     beta= 0.50
     Davidson diagonalization with overlap
     ethr =  3.13E-10,  avg # of iterations =  4.4

     negative rho (up, down):  3.224E-03 3.958E-03

     total cpu time spent up to now is      688.5 secs

     total energy              =   -1133.63382492 Ry
     estimated scf accuracy    <       0.00000013 Ry

     total magnetization       =    10.00 Bohr mag/cell
     absolute magnetization    =    10.02 Bohr mag/cell

     iteration # 19     ecut=    48.00 Ry     beta= 0.50
     Davidson diagonalization with overlap
     ethr =  8.26E-11,  avg # of iterations =  4.0

     negative rho (up, down):  3.222E-03 3.954E-03
 
     Magnetic moment per site:
     atom:    1    charge:    0.8804    magn:    0.0001    constr:    0.0000
     atom:    2    charge:    0.8804    magn:    0.0004    constr:    0.0000
     atom:    3    charge:    0.8805    magn:   -0.0013    constr:    0.0000
     atom:    4    charge:    0.8804    magn:    0.0000    constr:    0.0000
     atom:    5    charge:    0.8804    magn:    0.0010    constr:    0.0000
     atom:    6    charge:    0.8801    magn:    0.0002    constr:    0.0000
     atom:    7    charge:    2.8610    magn:    0.0000    constr:    0.0000
     atom:    8    charge:    2.8609    magn:    0.0003    constr:    0.0000
     atom:    9    charge:    2.8612    magn:    0.0102    constr:    0.0000
     atom:   10    charge:    2.8609    magn:    0.0005    constr:    0.0000
     atom:   11    charge:    2.8607    magn:    0.0011    constr:    0.0000
     atom:   12    charge:    2.8609    magn:    0.0004    constr:    0.0000
     atom:   13    charge:    2.8599    magn:    0.0005    constr:    0.0000
     atom:   14    charge:    2.8599    magn:    0.0003    constr:    0.0000
     atom:   15    charge:    2.8593    magn:    0.0088    constr:    0.0000
     atom:   16    charge:    0.8800    magn:    0.0001    constr:    0.0000
     atom:   17    charge:    0.8801    magn:    0.0004    constr:    0.0000
     atom:   18    charge:    0.8798    magn:    0.0002    constr:    0.0000
     atom:   19    charge:    0.8798    magn:    0.0010    constr:    0.0000
     atom:   20    charge:    0.8798    magn:    0.0001    constr:    0.0000
     atom:   21    charge:    0.8797    magn:    0.0001    constr:    0.0000
     atom:   22    charge:    2.8611    magn:    0.0005    constr:    0.0000
     atom:   23    charge:    0.8799    magn:    0.0001    constr:    0.0000
     atom:   24    charge:    0.8799    magn:    0.0001    constr:    0.0000
     atom:   25    charge:    0.8801    magn:    0.0000    constr:    0.0000
     atom:   26    charge:    2.8598    magn:    0.0004    constr:    0.0000
     atom:   27    charge:    2.8598    magn:    0.0003    constr:    0.0000
     atom:   28    charge:    2.8595    magn:    0.0033    constr:    0.0000
     atom:   29    charge:    2.8593    magn:    0.0033    constr:    0.0000
     atom:   30    charge:    2.8599    magn:    0.0102    constr:    0.0000
     atom:   31    charge:    2.8596    magn:    0.0005    constr:    0.0000
     atom:   32    charge:    0.8804    magn:    0.0000    constr:    0.0000
     atom:   33    charge:   11.2274    magn:    3.3852    constr:    0.0000
     atom:   34    charge:   11.2275    magn:    3.3853    constr:    0.0000

     total cpu time spent up to now is      722.1 secs

     End of self-consistent calculation

 ------ SPIN UP ------------


          k = 0.1667 0.2887 0.0000 ( 59267 PWs)   bands (ev):

   -73.6246 -73.2368 -46.0154 -44.8719 -44.8387 -44.6309 -44.5972 -44.3292
   -21.2623 -20.6885 -20.6568 -20.1162 -20.1136 -19.6149 -19.5841 -19.1146
   -18.7244 -18.6946 -18.4688 -18.4674 -18.2114 -18.1042 -18.0846 -17.8634
   -12.4985 -12.2201 -12.2180 -11.8389 -11.8279 -11.6726 -11.2157 -11.1937
   -10.4060 -10.3822 -10.1391 -10.1218  -9.6075  -9.5983  -8.8623  -8.8396
    -8.8356  -8.7914  -8.7648  -8.6111  -8.2115  -8.0970  -8.0027  -7.8432
    -7.8418  -7.4573  -7.4475  -7.2940  -7.2784  -7.2275  -7.2155  -6.9727
    -6.9714  -6.6082  -6.5262  -6.1700  -6.1653  -5.8916  -5.4328  -5.3309
    -5.2827  -5.2144  -4.9274  -4.9195  -4.5403  -4.3756  -4.3576  -4.0202
    -3.9888  -3.9441  -3.8821  -3.0140  -2.4513  -2.3965  -1.5483  -1.5194
    -1.0054  -0.9837  -0.9152  -0.1160   0.4234   0.8069   1.0392   1.2309
     1.3604   1.4875   1.5327   1.5715   1.6149   1.8517

          k = 0.1667-0.4811 0.0000 ( 59291 PWs)   bands (ev):

   -73.6246 -73.2368 -46.0154 -44.8719 -44.8387 -44.6309 -44.5972 -44.3292
   -21.1324 -20.9278 -20.7354 -20.1749 -19.8191 -19.4814 -19.3335 -19.1873
   -19.0304 -18.7918 -18.6556 -18.5584 -18.1648 -18.1035 -17.9344 -17.7379
   -12.3628 -12.1287 -12.0585 -11.9211 -11.7013 -11.6665 -11.5670 -10.9565
   -10.9039 -10.6374 -10.5370  -9.8747  -9.7076  -9.3505  -9.1255  -8.6952
    -8.6382  -8.5667  -8.4042  -8.3881  -8.1749  -8.1291  -8.0829  -8.0593
    -7.7027  -7.6375  -7.5108  -7.4857  -7.3706  -7.1854  -7.0824  -6.8787
    -6.6364  -6.4075  -6.2026  -6.1724  -5.9803  -5.9430  -5.7979  -5.7675
    -5.4656  -5.4092  -5.2319  -5.0589  -4.4790  -4.3683  -4.1082  -3.9917
    -3.9628  -3.8926  -3.7746  -3.0113  -2.4511  -2.3966  -1.5490  -1.5198
    -1.0067  -0.9833  -0.9160  -0.1208   0.3563   0.8220   1.0451   1.1358
     1.2267   1.3173   1.5261   1.8361   1.9134   2.1297

          k = 0.1667-0.0962 0.0000 ( 59226 PWs)   bands (ev):

   -73.6246 -73.2368 -46.0154 -44.8719 -44.8387 -44.6309 -44.5972 -44.3292
   -21.3286 -20.5512 -20.3608 -20.3521 -20.0076 -19.9905 -19.8191 -18.7486
   -18.7340 -18.3924 -18.3884 -18.3675 -18.2775 -18.2749 -18.0925 -18.0829
   -12.5205 -12.5183 -12.4227 -11.5974 -11.5887 -11.4388 -11.4366 -10.9414
   -10.9370  -9.9437  -9.9407  -9.6899  -9.3887  -9.3880  -9.2443  -9.2422
    -9.0564  -9.0546  -8.9450  -8.3383  -8.3356  -7.9154  -7.9145  -7.9044
    -7.8592  -7.7850  -7.6283  -7.5922  -7.1632  -7.0943  -6.9738  -6.9042
    -6.8974  -6.8620  -6.5469  -6.5412  -6.2718  -5.3852  -5.3262  -5.1575
    -5.0794  -4.8347  -4.8277  -4.7740  -4.6255  -4.6185  -4.3867  -4.3413
    -3.9910  -3.9583  -3.8863  -3.0170  -2.4526  -2.3963  -1.5478  -1.5191
    -1.0038  -0.9843  -0.9144  -0.1105   0.4990   0.7740   1.0257   1.2080
     1.2595   1.3792   1.5848   1.6050   1.8194   2.0025

          k =-0.5000-0.8660 0.0000 ( 59292 PWs)   bands (ev):

   -73.6246 -73.2368 -46.0154 -44.8719 -44.8387 -44.6309 -44.5972 -44.3292
   -21.0810 -21.0454 -20.4865 -20.4757 -19.4438 -19.4367 -19.4289 -19.4193
   -19.0176 -18.9916 -18.3594 -18.3476 -18.3178 -18.3088 -17.8105 -17.7995
   -12.0999 -12.0931 -12.0644 -12.0612 -11.8970 -11.8829 -11.3531 -11.3314
   -10.2526 -10.2471 -10.1489 -10.1473 -10.1405 -10.1393  -8.6454  -8.5768
    -8.5699  -8.5488  -8.5425  -8.5281  -7.8834  -7.8784  -7.8739  -7.8718
    -7.8346  -7.8335  -7.8029  -7.7606  -7.5158  -7.4891  -6.6297  -6.6187
    -6.3802  -6.3646  -6.3182  -6.2997  -6.2121  -6.1933  -5.7397  -5.6995
    -5.5706  -5.5453  -4.7806  -4.7707  -4.6838  -4.6782  -4.0205  -3.9770
    -3.9452  -3.8839  -3.8183  -3.0105  -2.4514  -2.3973  -1.5472  -1.5192
    -1.0164  -0.9859  -0.9181  -0.2099   0.4603   0.8418   1.0522   1.1225
     1.4643   1.5752   1.5931   1.6079   1.8053   1.8467

          k =-0.1667 0.2887 0.0000 ( 59267 PWs)   bands (ev):

   -73.6246 -73.2368 -46.0154 -44.8719 -44.8387 -44.6309 -44.5972 -44.3292
   -21.2623 -20.6884 -20.6568 -20.1161 -20.1136 -19.6149 -19.5841 -19.1146
   -18.7244 -18.6946 -18.4688 -18.4674 -18.2114 -18.1042 -18.0847 -17.8634
   -12.4985 -12.2201 -12.2180 -11.8389 -11.8279 -11.6726 -11.2156 -11.1937
   -10.4060 -10.3821 -10.1391 -10.1218  -9.6075  -9.5983  -8.8623  -8.8396
    -8.8356  -8.7914  -8.7649  -8.6110  -8.2115  -8.0970  -8.0027  -7.8432
    -7.8417  -7.4573  -7.4475  -7.2940  -7.2784  -7.2275  -7.2155  -6.9728
    -6.9715  -6.6082  -6.5262  -6.1699  -6.1653  -5.8916  -5.4328  -5.3309
    -5.2827  -5.2143  -4.9274  -4.9195  -4.5403  -4.3756  -4.3576  -4.0202
    -3.9888  -3.9441  -3.8821  -3.0140  -2.4513  -2.3965  -1.5483  -1.5194
    -1.0054  -0.9837  -0.9152  -0.1160   0.4234   0.8069   1.0392   1.2309
     1.3604   1.4875   1.5327   1.5715   1.6149   1.8517

          k = 0.3333 0.0000 0.0000 ( 59267 PWs)   bands (ev):

   -73.6246 -73.2368 -46.0154 -44.8719 -44.8387 -44.6309 -44.5972 -44.3292
   -21.2620 -20.7002 -20.6450 -20.1201 -20.1084 -19.6272 -19.5733 -19.1162
   -18.7307 -18.6846 -18.4744 -18.4630 -18.2086 -18.1171 -18.0762 -17.8627
   -12.4984 -12.2238 -12.2141 -11.8432 -11.8252 -11.6708 -11.2243 -11.1858
   -10.4056 -10.3818 -10.1447 -10.1163  -9.6101  -9.5950  -8.8667  -8.8386
    -8.8304  -8.8020  -8.7554  -8.6117  -8.2127  -8.1201  -7.9793  -7.8427
    -7.8407  -7.4598  -7.4443  -7.3114  -7.2572  -7.2320  -7.2110  -6.9777
    -6.9675  -6.6323  -6.5071  -6.1711  -6.1635  -5.8986  -5.4327  -5.3344
    -5.2670  -5.2145  -4.9380  -4.9136  -4.5277  -4.3893  -4.3538  -4.0400
    -3.9802  -3.9552  -3.8625  -3.0136  -2.4526  -2.3966  -1.5471  -1.5192
    -1.0112  -0.9857  -0.9164  -0.1781   0.4931   0.8027   1.1570   1.1950
     1.3580   1.5022   1.5496   1.5728   1.5895   1.9976

          k =-0.1667-0.4811 0.0000 ( 59291 PWs)   bands (ev):

   -73.6246 -73.2368 -46.0154 -44.8719 -44.8387 -44.6309 -44.5972 -44.3292
   -21.1324 -20.9278 -20.7354 -20.1749 -19.8191 -19.4814 -19.3335 -19.1873
   -19.0304 -18.7918 -18.6556 -18.5584 -18.1648 -18.1035 -17.9344 -17.7379
   -12.3628 -12.1286 -12.0585 -11.9211 -11.7013 -11.6665 -11.5670 -10.9565
   -10.9040 -10.6374 -10.5370  -9.8746  -9.7076  -9.3506  -9.1255  -8.6952
    -8.6382  -8.5667  -8.4041  -8.3881  -8.1748  -8.1291  -8.0830  -8.0593
    -7.7027  -7.6375  -7.5108  -7.4857  -7.3706  -7.1853  -7.0824  -6.8787
    -6.6364  -6.4075  -6.2027  -6.1724  -5.9803  -5.9430  -5.7979  -5.7675
    -5.4657  -5.4092  -5.2319  -5.0589  -4.4790  -4.3683  -4.1082  -3.9917
    -3.9628  -3.8926  -3.7746  -3.0113  -2.4511  -2.3966  -1.5490  -1.5198
    -1.0067  -0.9833  -0.9160  -0.1208   0.3563   0.8220   1.0451   1.1358
     1.2267   1.3174   1.5261   1.8361   1.9134   2.1297

          k = 0.5000-0.0962 0.0000 ( 59291 PWs)   bands (ev):

   -73.6246 -73.2368 -46.0154 -44.8719 -44.8387 -44.6309 -44.5972 -44.3292
   -21.1306 -20.9329 -20.7322 -20.1735 -19.8191 -19.4833 -19.3370 -19.1840
   -19.0311 -18.7929 -18.6483 -18.5623 -18.1579 -18.1133 -17.9328 -17.7375
   -12.3622 -12.1290 -12.0571 -11.9239 -11.7075 -11.6583 -11.5686 -10.9564
   -10.9027 -10.6363 -10.5387  -9.8729  -9.7081  -9.3513  -9.1251  -8.6893
    -8.6386  -8.5652  -8.4099  -8.4033  -8.1736  -8.1175  -8.0906  -8.0526
    -7.6998  -7.6378  -7.5105  -7.4862  -7.3663  -7.1863  -7.0830  -6.8775
    -6.6367  -6.4152  -6.2124  -6.1720  -5.9722  -5.9424  -5.7974  -5.7686
    -5.4663  -5.4123  -5.2129  -5.0670  -4.4582  -4.3818  -4.1247  -3.9917
    -3.9579  -3.9079  -3.7565  -3.0106  -2.4519  -2.3972  -1.5472  -1.5192
    -1.0163  -0.9860  -0.9181  -0.2091   0.4539   0.8320   1.0425   1.1687
     1.2567   1.3299   1.7238   1.8101   1.9778   2.0588

          k =-0.3333-0.3849 0.0000 ( 59291 PWs)   bands (ev):

   -73.6246 -73.2368 -46.0154 -44.8719 -44.8387 -44.6309 -44.5972 -44.3292
   -21.1312 -20.9311 -20.7335 -20.1733 -19.8207 -19.4816 -19.3334 -19.1868
   -19.0330 -18.7917 -18.6494 -18.5617 -18.1592 -18.1116 -17.9328 -17.7377
   -12.3625 -12.1278 -12.0586 -11.9234 -11.7010 -11.6657 -11.5678 -10.9564
   -10.9022 -10.6359 -10.5394  -9.8736  -9.7081  -9.3506  -9.1258  -8.6912
    -8.6377  -8.5666  -8.4052  -8.3992  -8.1746  -8.1223  -8.0839  -8.0602
    -7.6999  -7.6370  -7.5142  -7.4827  -7.3650  -7.1864  -7.0834  -6.8842
    -6.6353  -6.4092  -6.2002  -6.1735  -5.9802  -5.9417  -5.7974  -5.7766
    -5.4663  -5.4081  -5.2157  -5.0652  -4.4638  -4.3774  -4.1268  -3.9892
    -3.9628  -3.8932  -3.7659  -3.0108  -2.4513  -2.3971  -1.5479  -1.5194
    -1.0132  -0.9850  -0.9175  -0.1826   0.4224   0.8337   1.0408   1.1380
     1.2300   1.3704   1.6658   1.8753   1.9382   1.9982

          k = 0.5000 0.0962 0.0000 ( 59291 PWs)   bands (ev):

   -73.6246 -73.2368 -46.0154 -44.8719 -44.8387 -44.6309 -44.5972 -44.3292
   -21.1306 -20.9329 -20.7322 -20.1735 -19.8191 -19.4833 -19.3370 -19.1839
   -19.0311 -18.7929 -18.6482 -18.5623 -18.1579 -18.1133 -17.9327 -17.7375
   -12.3622 -12.1290 -12.0571 -11.9240 -11.7075 -11.6582 -11.5686 -10.9564
   -10.9027 -10.6363 -10.5387  -9.8729  -9.7081  -9.3513  -9.1251  -8.6893
    -8.6386  -8.5652  -8.4099  -8.4033  -8.1736  -8.1174  -8.0906  -8.0526
    -7.6998  -7.6377  -7.5105  -7.4862  -7.3663  -7.1864  -7.0830  -6.8775
    -6.6366  -6.4152  -6.2124  -6.1720  -5.9723  -5.9424  -5.7975  -5.7686
    -5.4664  -5.4123  -5.2129  -5.0670  -4.4582  -4.3818  -4.1247  -3.9917
    -3.9579  -3.9079  -3.7565  -3.0106  -2.4519  -2.3972  -1.5472  -1.5192
    -1.0163  -0.9860  -0.9181  -0.2091   0.4539   0.8320   1.0425   1.1687
     1.2567   1.3299   1.7238   1.8100   1.9778   2.0589

          k =-0.3333 0.3849 0.0000 ( 59291 PWs)   bands (ev):

   -73.6246 -73.2368 -46.0154 -44.8719 -44.8387 -44.6309 -44.5972 -44.3292
   -21.1312 -20.9311 -20.7335 -20.1733 -19.8207 -19.4816 -19.3334 -19.1868
   -19.0330 -18.7917 -18.6494 -18.5617 -18.1592 -18.1116 -17.9329 -17.7377
   -12.3624 -12.1278 -12.0586 -11.9234 -11.7010 -11.6657 -11.5678 -10.9565
   -10.9022 -10.6359 -10.5394  -9.8736  -9.7081  -9.3506  -9.1258  -8.6912
    -8.6377  -8.5665  -8.4052  -8.3991  -8.1746  -8.1223  -8.0838  -8.0602
    -7.6999  -7.6369  -7.5143  -7.4827  -7.3650  -7.1863  -7.0834  -6.8842
    -6.6354  -6.4092  -6.2002  -6.1735  -5.9802  -5.9418  -5.7974  -5.7766
    -5.4662  -5.4080  -5.2157  -5.0652  -4.4638  -4.3774  -4.1268  -3.9892
    -3.9628  -3.8932  -3.7659  -3.0108  -2.4513  -2.3971  -1.5479  -1.5194
    -1.0132  -0.9850  -0.9175  -0.1826   0.4224   0.8337   1.0408   1.1380
     1.2300   1.3704   1.6658   1.8753   1.9382   1.9982

          k =-0.1667-0.0962 0.0000 ( 59226 PWs)   bands (ev):

   -73.6246 -73.2368 -46.0154 -44.8719 -44.8387 -44.6309 -44.5972 -44.3292
   -21.3286 -20.5512 -20.3608 -20.3521 -20.0076 -19.9905 -19.8191 -18.7485
   -18.7340 -18.3923 -18.3884 -18.3675 -18.2776 -18.2749 -18.0924 -18.0829
   -12.5205 -12.5184 -12.4227 -11.5973 -11.5887 -11.4388 -11.4367 -10.9414
   -10.9370  -9.9437  -9.9407  -9.6899  -9.3887  -9.3879  -9.2443  -9.2423
    -9.0564  -9.0546  -8.9450  -8.3383  -8.3356  -7.9154  -7.9145  -7.9044
    -7.8592  -7.7850  -7.6283  -7.5922  -7.1632  -7.0943  -6.9739  -6.9042
    -6.8974  -6.8620  -6.5469  -6.5411  -6.2719  -5.3852  -5.3262  -5.1575
    -5.0795  -4.8347  -4.8276  -4.7741  -4.6255  -4.6185  -4.3867  -4.3413
    -3.9910  -3.9583  -3.8863  -3.0170  -2.4526  -2.3963  -1.5478  -1.5191
    -1.0038  -0.9843  -0.9144  -0.1105   0.4990   0.7740   1.0257   1.2080
     1.2595   1.3792   1.5848   1.6051   1.8195   1.9957

          k =-0.0000-0.1925 0.0000 ( 59226 PWs)   bands (ev):

   -73.6246 -73.2368 -46.0154 -44.8719 -44.8387 -44.6309 -44.5972 -44.3292
   -21.3287 -20.5479 -20.3600 -20.3590 -19.9986 -19.9945 -19.8212 -18.7409
   -18.7393 -18.4074 -18.3841 -18.3699 -18.2694 -18.2691 -18.0902 -18.0883
   -12.5240 -12.5146 -12.4229 -11.5943 -11.5931 -11.4415 -11.4315 -10.9402
   -10.9395  -9.9421  -9.9421  -9.6903  -9.3901  -9.3859  -9.2435  -9.2433
    -9.0560  -9.0552  -8.9453  -8.3366  -8.3366  -7.9148  -7.9129  -7.8952
    -7.8595  -7.7862  -7.6215  -7.6200  -7.1330  -7.1087  -6.9731  -6.9022
    -6.9002  -6.8672  -6.5442  -6.5432  -6.2723  -5.3623  -5.3426  -5.1575
    -5.0793  -4.8500  -4.8455  -4.7696  -4.6124  -4.6099  -4.3732  -4.3513
    -3.9919  -3.9582  -3.8890  -3.0172  -2.4519  -2.3962  -1.5484  -1.5193
    -1.0011  -0.9832  -0.9138  -0.0728   0.4588   0.7754   0.9731   1.1897
     1.2810   1.3833   1.5933   1.6165   1.7409   2.0034

          k = 0.5000-0.8660 0.0000 ( 59292 PWs)   bands (ev):

   -73.6246 -73.2368 -46.0154 -44.8719 -44.8387 -44.6309 -44.5972 -44.3292
   -21.0809 -21.0454 -20.4864 -20.4757 -19.4438 -19.4366 -19.4290 -19.4193
   -19.0175 -18.9916 -18.3594 -18.3475 -18.3179 -18.3088 -17.8105 -17.7995
   -12.1000 -12.0930 -12.0645 -12.0612 -11.8970 -11.8829 -11.3530 -11.3314
   -10.2527 -10.2472 -10.1489 -10.1473 -10.1405 -10.1393  -8.6454  -8.5767
    -8.5698  -8.5489  -8.5426  -8.5281  -7.8833  -7.8783  -7.8738  -7.8718
    -7.8347  -7.8336  -7.8029  -7.7606  -7.5158  -7.4892  -6.6296  -6.6186
    -6.3802  -6.3646  -6.3182  -6.2997  -6.2119  -6.1933  -5.7397  -5.6996
    -5.5706  -5.5454  -4.7806  -4.7706  -4.6839  -4.6781  -4.0205  -3.9770
    -3.9452  -3.8839  -3.8183  -3.0105  -2.4514  -2.3973  -1.5472  -1.5192
    -1.0164  -0.9859  -0.9181  -0.2099   0.4603   0.8418   1.0522   1.1225
     1.4643   1.5751   1.5931   1.6078   1.8053   1.8467

          k =-1.0000 0.0000 0.0000 ( 59292 PWs)   bands (ev):

   -73.6246 -73.2368 -46.0155 -44.8719 -44.8387 -44.6309 -44.5972 -44.3292
   -21.0910 -21.0334 -20.4830 -20.4825 -19.4377 -19.4370 -19.4274 -19.4228
   -19.0260 -18.9836 -18.3851 -18.3504 -18.3053 -18.2939 -17.8065 -17.8044
   -12.1176 -12.0961 -12.0532 -12.0487 -11.8925 -11.8882 -11.3635 -11.3228
   -10.2547 -10.2544 -10.1436 -10.1435 -10.1402 -10.1402  -8.6617  -8.5895
    -8.5734  -8.5420  -8.5308  -8.5049  -7.8845  -7.8843  -7.8760  -7.8751
    -7.8287  -7.8273  -7.7918  -7.7838  -7.5273  -7.4792  -6.6247  -6.6216
    -6.3781  -6.3499  -6.3191  -6.3038  -6.2211  -6.1858  -5.7495  -5.6900
    -5.5805  -5.5357  -4.8091  -4.8002  -4.6634  -4.6572  -3.9935  -3.9836
    -3.8936  -3.8876  -3.8777  -3.0115  -2.4510  -2.3962  -1.5494  -1.5200
    -1.0035  -0.9824  -0.9151  -0.0856   0.3275   0.8177   1.0833   1.1220
     1.2140   1.5623   1.5885   1.6231   1.6427   1.8784

 ------ SPIN DOWN ----------


          k = 0.1667 0.2887 0.0000 ( 59267 PWs)   bands (ev):

   -69.5276 -69.1196 -42.1389 -40.7375 -40.7057 -40.4831 -40.4512 -40.3818
   -21.2575 -20.6821 -20.6543 -20.1114 -20.1093 -19.6083 -19.5817 -19.1097
   -18.7160 -18.6921 -18.4639 -18.4629 -18.2049 -18.0990 -18.0824 -17.8587
   -12.4961 -12.2174 -12.2152 -11.8360 -11.8260 -11.6702 -11.2122 -11.1917
   -10.4029 -10.3796 -10.1348 -10.1200  -9.6043  -9.5961  -8.8410  -8.8361
    -8.8278  -8.7875  -8.7634  -8.6084  -8.2088  -8.0645  -7.9952  -7.8403
    -7.8391  -7.4525  -7.4449  -7.2710  -7.2623  -7.2240  -7.2135  -6.9699
    -6.9688  -6.5797  -6.5195  -6.1667  -6.1626  -5.8699  -5.4292  -5.2982
    -5.2649  -5.2113  -4.9065  -4.9032  -4.5055  -4.3573  -4.3374  -3.9779
    -1.5401  -0.5197  -0.4879  -0.4441   0.6023   0.8848   1.0545   1.1547
     1.2548   1.2851   1.4519   1.5121   1.5425   1.5727   1.6796   1.9583
     2.0856   2.1234   2.2458   2.2586   2.3312   2.4454

          k = 0.1667-0.4811 0.0000 ( 59291 PWs)   bands (ev):

   -69.5276 -69.1196 -42.1389 -40.7375 -40.7057 -40.4831 -40.4512 -40.3819
   -21.1271 -20.9237 -20.7313 -20.1703 -19.8145 -19.4766 -19.3284 -19.1829
   -19.0253 -18.7876 -18.6493 -18.5547 -18.1573 -18.1010 -17.9300 -17.7330
   -12.3603 -12.1259 -12.0561 -11.9187 -11.6980 -11.6646 -11.5645 -10.9535
   -10.9010 -10.6347 -10.5344  -9.8713  -9.7050  -9.3473  -9.1227  -8.6631
    -8.6351  -8.5635  -8.4014  -8.3722  -8.1723  -8.1128  -8.0792  -8.0575
    -7.6996  -7.6347  -7.5074  -7.4838  -7.3502  -7.1819  -7.0796  -6.8587
    -6.6327  -6.3875  -6.1791  -6.1694  -5.9652  -5.9394  -5.7948  -5.7458
    -5.4627  -5.3929  -5.1993  -5.0456  -4.4374  -4.3552  -4.0860  -3.7661
    -1.5329  -0.5194  -0.4892  -0.4392   0.5900   0.8591   1.0522   1.0869
     1.1548   1.2194   1.3123   1.3567   1.6451   1.8244   1.9508   2.0870
     2.1188   2.2226   2.2364   2.2804   2.3493   2.3682

          k = 0.1667-0.0962 0.0000 ( 59226 PWs)   bands (ev):

   -69.5276 -69.1196 -42.1389 -40.7375 -40.7057 -40.4831 -40.4512 -40.3818
   -21.3239 -20.5459 -20.3565 -20.3483 -20.0017 -19.9868 -19.8155 -18.7418
   -18.7294 -18.3853 -18.3823 -18.3636 -18.2733 -18.2712 -18.0879 -18.0797
   -12.5180 -12.5158 -12.4202 -11.5945 -11.5865 -11.4360 -11.4340 -10.9384
   -10.9345  -9.9407  -9.9384  -9.6868  -9.3859  -9.3852  -9.2409  -9.2391
    -9.0540  -9.0517  -8.9209  -8.3347  -8.3322  -7.9124  -7.9113  -7.8755
    -7.8550  -7.7823  -7.6084  -7.5810  -7.1316  -7.0841  -6.9707  -6.9011
    -6.8951  -6.8509  -6.5436  -6.5387  -6.2689  -5.3486  -5.3116  -5.1542
    -5.0763  -4.8062  -4.8023  -4.7504  -4.6068  -4.6050  -4.3537  -4.3297
    -1.5472  -0.5201  -0.4869  -0.4490   0.6181   0.8300   1.0556   1.1792
     1.2665   1.3451   1.3721   1.5596   1.5912   1.6410   1.8151   1.9245
     2.0252   2.0743   2.0992   2.2818   2.3128   2.3862

          k =-0.5000-0.8660 0.0000 ( 59292 PWs)   bands (ev):

   -69.5276 -69.1196 -42.1389 -40.7375 -40.7057 -40.4831 -40.4512 -40.3819
   -21.0740 -21.0430 -20.4818 -20.4719 -19.4369 -19.4314 -19.4241 -19.4167
   -19.0107 -18.9896 -18.3499 -18.3404 -18.3155 -18.3078 -17.8048 -17.7957
   -12.0959 -12.0891 -12.0631 -12.0600 -11.8942 -11.8812 -11.3498 -11.3295
   -10.2491 -10.2446 -10.1455 -10.1443 -10.1378 -10.1370  -8.6045  -8.5717
    -8.5661  -8.5472  -8.5416  -8.5212  -7.8799  -7.8747  -7.8713  -7.8690
    -7.8310  -7.8290  -7.7819  -7.7497  -7.5119  -7.4878  -6.6255  -6.6165
    -6.3447  -6.3353  -6.3039  -6.2916  -6.2079  -6.1911  -5.7170  -5.6878
    -5.5658  -5.5439  -4.7418  -4.7361  -4.6775  -4.6737  -3.8880  -3.8657
    -1.5205  -0.5183  -0.4885  -0.4425   0.4043   0.8785   1.0440   1.0948
     1.1982   1.4352   1.5167   1.5666   1.6044   1.6328   1.7197   1.9212
     1.9391   2.2222   2.2296   2.2805   2.3588   2.3993

          k =-0.1667 0.2887 0.0000 ( 59267 PWs)   bands (ev):

   -69.5276 -69.1196 -42.1389 -40.7375 -40.7057 -40.4831 -40.4512 -40.3818
   -21.2575 -20.6821 -20.6543 -20.1114 -20.1093 -19.6083 -19.5818 -19.1097
   -18.7159 -18.6921 -18.4639 -18.4629 -18.2049 -18.0989 -18.0825 -17.8587
   -12.4961 -12.2174 -12.2152 -11.8360 -11.8260 -11.6703 -11.2121 -11.1918
   -10.4029 -10.3796 -10.1348 -10.1201  -9.6043  -9.5962  -8.8409  -8.8361
    -8.8278  -8.7875  -8.7635  -8.6083  -8.2089  -8.0645  -7.9952  -7.8403
    -7.8390  -7.4525  -7.4449  -7.2710  -7.2623  -7.2239  -7.2135  -6.9700
    -6.9689  -6.5797  -6.5196  -6.1666  -6.1626  -5.8699  -5.4293  -5.2982
    -5.2650  -5.2112  -4.9065  -4.9032  -4.5055  -4.3572  -4.3374  -3.9779
    -1.5401  -0.5197  -0.4879  -0.4441   0.6023   0.8848   1.0546   1.1548
     1.2548   1.2851   1.4519   1.5121   1.5425   1.5727   1.6796   1.9583
     2.0856   2.1234   2.2458   2.2589   2.3313   2.4600

          k = 0.3333 0.0000 0.0000 ( 59267 PWs)   bands (ev):

   -69.5276 -69.1196 -42.1389 -40.7375 -40.7057 -40.4831 -40.4512 -40.3818
   -21.2573 -20.6935 -20.6428 -20.1154 -20.1042 -19.6202 -19.5711 -19.1110
   -18.7224 -18.6825 -18.4692 -18.4587 -18.2024 -18.1111 -18.0742 -17.8582
   -12.4959 -12.2216 -12.2110 -11.8406 -11.8230 -11.6687 -11.2204 -11.1840
   -10.4027 -10.3791 -10.1407 -10.1144  -9.6069  -9.5929  -8.8465  -8.8344
    -8.8224  -8.7980  -8.7540  -8.6090  -8.2099  -8.0851  -7.9745  -7.8397
    -7.8383  -7.4553  -7.4416  -7.2855  -7.2451  -7.2283  -7.2092  -6.9747
    -6.9649  -6.6004  -6.5021  -6.1677  -6.1610  -5.8736  -5.4292  -5.3054
    -5.2520  -5.2114  -4.9151  -4.8960  -4.5020  -4.3703  -4.3296  -3.9772
    -1.5321  -0.5175  -0.4876  -0.4463   0.4732   0.8242   1.0661   1.2451
     1.3271   1.4404   1.4590   1.4849   1.5360   1.5823   1.6121   1.9342
     2.0472   2.1846   2.2722   2.2888   2.3081   2.4569

          k =-0.1667-0.4811 0.0000 ( 59291 PWs)   bands (ev):

   -69.5276 -69.1196 -42.1389 -40.7375 -40.7057 -40.4831 -40.4512 -40.3819
   -21.1271 -20.9237 -20.7313 -20.1703 -19.8145 -19.4766 -19.3284 -19.1829
   -19.0253 -18.7876 -18.6493 -18.5547 -18.1573 -18.1010 -17.9300 -17.7330
   -12.3603 -12.1259 -12.0561 -11.9186 -11.6981 -11.6646 -11.5645 -10.9535
   -10.9011 -10.6347 -10.5343  -9.8713  -9.7050  -9.3473  -9.1227  -8.6631
    -8.6351  -8.5635  -8.4014  -8.3722  -8.1722  -8.1128  -8.0793  -8.0575
    -7.6996  -7.6347  -7.5074  -7.4838  -7.3502  -7.1819  -7.0796  -6.8587
    -6.6327  -6.3875  -6.1791  -6.1694  -5.9652  -5.9394  -5.7948  -5.7458
    -5.4627  -5.3929  -5.1993  -5.0456  -4.4374  -4.3552  -4.0860  -3.7661
    -1.5329  -0.5194  -0.4892  -0.4392   0.5900   0.8591   1.0522   1.0869
     1.1548   1.2194   1.3123   1.3567   1.6451   1.8244   1.9509   2.0870
     2.1190   2.2224   2.2365   2.2798   2.3420   2.3653

          k = 0.5000-0.0962 0.0000 ( 59291 PWs)   bands (ev):

   -69.5276 -69.1196 -42.1389 -40.7375 -40.7057 -40.4831 -40.4512 -40.3818
   -21.1255 -20.9282 -20.7284 -20.1691 -19.8145 -19.4782 -19.3315 -19.1800
   -19.0259 -18.7885 -18.6430 -18.5582 -18.1509 -18.1098 -17.9286 -17.7327
   -12.3596 -12.1264 -12.0548 -11.9214 -11.7042 -11.6566 -11.5659 -10.9535
   -10.8998 -10.6336 -10.5360  -9.8697  -9.7055  -9.3479  -9.1224  -8.6589
    -8.6353  -8.5621  -8.4044  -8.3850  -8.1711  -8.1045  -8.0864  -8.0513
    -7.6970  -7.6350  -7.5070  -7.4843  -7.3472  -7.1828  -7.0801  -6.8580
    -6.6330  -6.3920  -6.1859  -6.1691  -5.9592  -5.9390  -5.7943  -5.7469
    -5.4633  -5.3942  -5.1884  -5.0514  -4.4283  -4.3663  -4.0852  -3.7657
    -1.5205  -0.5184  -0.4886  -0.4426   0.4078   0.8462   1.0277   1.1021
     1.2225   1.3240   1.3732   1.4167   1.6527   1.8240   1.9566   2.0316
     2.1185   2.1811   2.2087   2.2933   2.3321   2.4116

          k =-0.3333-0.3849 0.0000 ( 59291 PWs)   bands (ev):

   -69.5276 -69.1196 -42.1389 -40.7375 -40.7057 -40.4831 -40.4512 -40.3818
   -21.1261 -20.9266 -20.7296 -20.1689 -19.8159 -19.4768 -19.3284 -19.1824
   -19.0275 -18.7874 -18.6439 -18.5577 -18.1521 -18.1083 -17.9287 -17.7328
   -12.3600 -12.1250 -12.0563 -11.9207 -11.6980 -11.6639 -11.5653 -10.9536
   -10.8994 -10.6332 -10.5365  -9.8702  -9.7055  -9.3475  -9.1230  -8.6601
    -8.6346  -8.5633  -8.4023  -8.3804  -8.1721  -8.1079  -8.0800  -8.0585
    -7.6971  -7.6342  -7.5106  -7.4811  -7.3464  -7.1829  -7.0804  -6.8622
    -6.6317  -6.3885  -6.1784  -6.1701  -5.9645  -5.9383  -5.7944  -5.7513
    -5.4633  -5.3916  -5.1896  -5.0513  -4.4292  -4.3652  -4.0850  -3.7659
    -1.5247  -0.5194  -0.4888  -0.4415   0.4592   0.8702   1.0439   1.0884
     1.2045   1.2528   1.3080   1.4310   1.6720   1.9063   1.9673   2.0500
     2.0981   2.1408   2.2036   2.2823   2.3366   2.3724

          k = 0.5000 0.0962 0.0000 ( 59291 PWs)   bands (ev):

   -69.5276 -69.1196 -42.1389 -40.7375 -40.7057 -40.4831 -40.4512 -40.3818
   -21.1255 -20.9282 -20.7284 -20.1691 -19.8145 -19.4782 -19.3315 -19.1800
   -19.0259 -18.7885 -18.6430 -18.5582 -18.1509 -18.1098 -17.9286 -17.7327
   -12.3596 -12.1264 -12.0548 -11.9214 -11.7042 -11.6566 -11.5659 -10.9535
   -10.8998 -10.6336 -10.5360  -9.8697  -9.7055  -9.3479  -9.1223  -8.6589
    -8.6353  -8.5622  -8.4045  -8.3850  -8.1711  -8.1045  -8.0864  -8.0512
    -7.6970  -7.6350  -7.5071  -7.4843  -7.3472  -7.1829  -7.0800  -6.8580
    -6.6329  -6.3920  -6.1859  -6.1690  -5.9592  -5.9389  -5.7944  -5.7470
    -5.4634  -5.3942  -5.1884  -5.0514  -4.4283  -4.3663  -4.0852  -3.7657
    -1.5205  -0.5184  -0.4886  -0.4426   0.4078   0.8462   1.0277   1.1021
     1.2225   1.3240   1.3732   1.4167   1.6527   1.8240   1.9566   2.0316
     2.1185   2.1811   2.2087   2.2929   2.3316   2.4096

          k =-0.3333 0.3849 0.0000 ( 59291 PWs)   bands (ev):

   -69.5276 -69.1196 -42.1389 -40.7375 -40.7057 -40.4831 -40.4512 -40.3818
   -21.1261 -20.9266 -20.7296 -20.1689 -19.8159 -19.4768 -19.3284 -19.1824
   -19.0275 -18.7874 -18.6439 -18.5577 -18.1521 -18.1083 -17.9287 -17.7328
   -12.3600 -12.1250 -12.0564 -11.9207 -11.6980 -11.6639 -11.5652 -10.9536
   -10.8993 -10.6332 -10.5365  -9.8703  -9.7055  -9.3474  -9.1230  -8.6601
    -8.6347  -8.5633  -8.4023  -8.3804  -8.1721  -8.1079  -8.0799  -8.0585
    -7.6970  -7.6342  -7.5106  -7.4810  -7.3464  -7.1828  -7.0805  -6.8622
    -6.6318  -6.3885  -6.1784  -6.1702  -5.9645  -5.9384  -5.7943  -5.7513
    -5.4632  -5.3916  -5.1896  -5.0513  -4.4293  -4.3652  -4.0849  -3.7659
    -1.5247  -0.5194  -0.4888  -0.4415   0.4592   0.8701   1.0439   1.0884
     1.2045   1.2528   1.3081   1.4310   1.6720   1.9063   1.9673   2.0501
     2.0981   2.1407   2.2038   2.2824   2.3367   2.3721

          k =-0.1667-0.0962 0.0000 ( 59226 PWs)   bands (ev):

   -69.5276 -69.1196 -42.1389 -40.7375 -40.7057 -40.4831 -40.4512 -40.3818
   -21.3239 -20.5459 -20.3565 -20.3483 -20.0017 -19.9868 -19.8155 -18.7418
   -18.7294 -18.3853 -18.3823 -18.3636 -18.2733 -18.2712 -18.0879 -18.0797
   -12.5180 -12.5159 -12.4202 -11.5945 -11.5865 -11.4360 -11.4340 -10.9384
   -10.9345  -9.9407  -9.9384  -9.6867  -9.3859  -9.3851  -9.2409  -9.2391
    -9.0540  -9.0517  -8.9209  -8.3347  -8.3322  -7.9124  -7.9112  -7.8755
    -7.8549  -7.7823  -7.6084  -7.5810  -7.1316  -7.0841  -6.9708  -6.9011
    -6.8951  -6.8509  -6.5435  -6.5386  -6.2690  -5.3486  -5.3116  -5.1541
    -5.0764  -4.8061  -4.8023  -4.7504  -4.6068  -4.6050  -4.3537  -4.3297
    -1.5472  -0.5201  -0.4869  -0.4490   0.6181   0.8300   1.0556   1.1791
     1.2666   1.3451   1.3721   1.5596   1.5912   1.6410   1.8151   1.9245
     2.0252   2.0743   2.0992   2.2817   2.3128   2.3863

          k =-0.0000-0.1925 0.0000 ( 59226 PWs)   bands (ev):

   -69.5276 -69.1196 -42.1389 -40.7375 -40.7057 -40.4831 -40.4512 -40.3818
   -21.3240 -20.5429 -20.3552 -20.3550 -19.9938 -19.9903 -19.8174 -18.7354
   -18.7338 -18.3989 -18.3785 -18.3651 -18.2664 -18.2660 -18.0859 -18.0844
   -12.5221 -12.5117 -12.4203 -11.5917 -11.5905 -11.4392 -11.4288 -10.9373
   -10.9367  -9.9398  -9.9392  -9.6870  -9.3866  -9.3838  -9.2402  -9.2402
    -9.0535  -9.0524  -8.9211  -8.3332  -8.3331  -7.9117  -7.9104  -7.8695
    -7.8540  -7.7833  -7.6026  -7.6016  -7.1093  -7.0952  -6.9700  -6.8994
    -6.8976  -6.8550  -6.5413  -6.5404  -6.2693  -5.3325  -5.3243  -5.1543
    -5.0762  -4.8206  -4.8030  -4.7514  -4.6004  -4.5957  -4.3467  -4.3398
    -1.5511  -0.5212  -0.4870  -0.4479   0.7110   0.8614   1.0474   1.1493
     1.1910   1.2705   1.4217   1.5340   1.5690   1.6261   1.8381   1.9510
     1.9577   2.0718   2.1627   2.2756   2.3364   2.3545

          k = 0.5000-0.8660 0.0000 ( 59292 PWs)   bands (ev):

   -69.5276 -69.1196 -42.1389 -40.7375 -40.7057 -40.4831 -40.4512 -40.3819
   -21.0739 -21.0430 -20.4818 -20.4719 -19.4369 -19.4314 -19.4241 -19.4167
   -19.0107 -18.9896 -18.3499 -18.3403 -18.3156 -18.3079 -17.8048 -17.7957
   -12.0959 -12.0890 -12.0633 -12.0600 -11.8942 -11.8812 -11.3497 -11.3295
   -10.2491 -10.2446 -10.1455 -10.1443 -10.1378 -10.1370  -8.6045  -8.5717
    -8.5659  -8.5473  -8.5416  -8.5212  -7.8798  -7.8747  -7.8713  -7.8690
    -7.8311  -7.8291  -7.7819  -7.7497  -7.5119  -7.4879  -6.6254  -6.6164
    -6.3447  -6.3353  -6.3039  -6.2916  -6.2078  -6.1911  -5.7170  -5.6878
    -5.5659  -5.5440  -4.7418  -4.7361  -4.6776  -4.6737  -3.8880  -3.8657
    -1.5205  -0.5183  -0.4885  -0.4425   0.4043   0.8785   1.0441   1.0948
     1.1983   1.4351   1.5167   1.5666   1.6044   1.6327   1.7197   1.9212
     1.9392   2.2224   2.2297   2.2805   2.3587   2.3994

          k =-1.0000 0.0000 0.0000 ( 59292 PWs)   bands (ev):

   -69.5276 -69.1196 -42.1389 -40.7375 -40.7057 -40.4831 -40.4512 -40.3819
   -21.0840 -21.0313 -20.4788 -20.4779 -19.4327 -19.4314 -19.4225 -19.4190
   -19.0191 -18.9817 -18.3747 -18.3428 -18.3040 -18.2931 -17.8014 -17.7999
   -12.1143 -12.0918 -12.0515 -12.0477 -11.8900 -11.8860 -11.3597 -11.3210
   -10.2516 -10.2512 -10.1407 -10.1402 -10.1380 -10.1376  -8.6204  -8.5839
    -8.5698  -8.5409  -8.5298  -8.5003  -7.8811  -7.8806  -7.8728  -7.8720
    -7.8247  -7.8245  -7.7723  -7.7672  -7.5231  -7.4779  -6.6213  -6.6190
    -6.3425  -6.3291  -6.3025  -6.2937  -6.2166  -6.1838  -5.7280  -5.6782
    -5.5756  -5.5344  -4.7724  -4.7450  -4.6599  -4.6547  -3.8798  -3.8745
    -1.5370  -0.5183  -0.4893  -0.4379   0.6716   0.8552   1.0722   1.0779
     1.1099   1.2875   1.4484   1.4950   1.5778   1.6296   1.6645   1.8741
     2.0480   2.2707   2.2873   2.3083   2.3265   2.3647

     the Fermi energy is    -0.8093 ev

!    total energy              =   -1133.63382597 Ry

     total all-electron energy =     -6753.309529 Ry
     estimated scf accuracy    <       0.00000004 Ry
     smearing contrib. (-TS)   =      -0.00000000 Ry
     internal energy E=F+TS    =   -1133.63382597 Ry

     The total energy is F=E-TS. E is the sum of the following terms:
     one-electron contribution =   -4007.04063405 Ry
     hartree contribution      =    2031.17847788 Ry
     xc contribution           =    -186.21312719 Ry
     ewald contribution        =    1387.82602721 Ry
     DFT-D3 Dispersion         =      -0.12189713 Ry
     one-center paw contrib.   =    -359.26267268 Ry

     total magnetization       =    10.00 Bohr mag/cell
     absolute magnetization    =    10.02 Bohr mag/cell

     convergence has been achieved in  19 iterations

     Writing output data file ./mytmp/Crdimer0.1-0.0.save/
 
     init_run     :     28.50s CPU     35.59s WALL (       1 calls)
     electrons    :    643.88s CPU    686.36s WALL (       1 calls)

     Called by init_run:
     wfcinit      :     22.64s CPU     28.91s WALL (       1 calls)
     potinit      :      1.83s CPU      2.00s WALL (       1 calls)
     hinit0       :      2.07s CPU      2.42s WALL (       1 calls)

     Called by electrons:
     c_bands      :    511.84s CPU    542.96s WALL (      19 calls)
     sum_band     :    101.88s CPU    108.99s WALL (      19 calls)
     v_of_rho     :      6.26s CPU      6.75s WALL (      20 calls)
     newd         :     12.95s CPU     16.86s WALL (      20 calls)
     PAW_pot      :      9.69s CPU      9.81s WALL (      20 calls)
     mix_rho      :      1.41s CPU      1.43s WALL (      19 calls)

     Called by c_bands:
     init_us_2    :      6.77s CPU      6.82s WALL (    1170 calls)
     cegterg      :    495.08s CPU    526.10s WALL (     570 calls)

     Called by *egterg:
     cdiaghg      :     32.88s CPU     52.04s WALL (    3713 calls)
     h_psi        :    320.82s CPU    337.28s WALL (    3743 calls)
     s_psi        :     35.75s CPU     35.83s WALL (    3743 calls)
     g_psi        :      0.88s CPU      0.91s WALL (    3143 calls)

     Called by h_psi:
     h_psi:calbec :     37.04s CPU     37.76s WALL (    3743 calls)
     vloc_psi     :    244.93s CPU    260.53s WALL (    3743 calls)
     add_vuspsi   :     36.17s CPU     36.31s WALL (    3743 calls)

     General routines
     calbec       :     49.79s CPU     50.70s WALL (    4313 calls)
     fft          :      6.23s CPU      7.81s WALL (     494 calls)
     ffts         :      0.15s CPU      0.16s WALL (      78 calls)
     fftw         :    253.26s CPU    269.19s WALL (  324742 calls)
     interpolate  :      0.57s CPU      0.60s WALL (      40 calls)
 
     Parallel routines
     fft_scatt_xy :     39.56s CPU     41.00s WALL (  325314 calls)
     fft_scatt_yz :    103.95s CPU    115.70s WALL (  325314 calls)
 
     PWSCF        :  11m14.47s CPU  12m 6.06s WALL

 
   This run was terminated on:  10: 3:47  31Mar2021            

=------------------------------------------------------------------------------=
   JOB DONE.
=------------------------------------------------------------------------------=
