
     Program PWSCF v.6.7MaX starts on 31Mar2021 at 12:35:13 

     This program is part of the open-source Quantum ESPRESSO suite
     for quantum simulation of materials; please cite
         "P. Giannozzi et al., J. Phys.:Condens. Matter 21 395502 (2009);
         "P. Giannozzi et al., J. Phys.:Condens. Matter 29 465901 (2017);
          URL http://www.quantum-espresso.org", 
     in publications or presentations arising from this work. More details at
     http://www.quantum-espresso.org/quote

     Parallel version (MPI), running on    48 processors

     MPI processes distributed on     1 nodes
     R & G space division:  proc/nbgrp/npool/nimage =      48
     Reading input from Crdimer0.12-0.4.scf.in

     Current dimensions of program PWSCF are:
     Max number of different atomic species (ntypx) = 10
     Max number of k-points (npk) =  40000
     Max angular momentum in pseudopotentials (lmaxx) =  3
     file N.pbe-n-kjpaw_psl.1.0.0.UPF: wavefunction(s)  2S renormalized
     file Cr.pbe-spn-kjpaw_psl.1.0.0.UPF: wavefunction(s)  3S 3P 3D renormalized
     file Cr.pbe-spn-kjpaw_psl.1.0.0.UPF: wavefunction(s)  3S 3P 3D renormalized

     --------------------------------------------
     Parameters for DFT-D3 Dispersion Correction:
     --------------------------------------------
       Reference C6 values for interpolation: 

         atom   Coordination number   C6
         B          0.000           214.36
         B          0.971           150.74
         B          1.944           106.23
         B          2.913            62.89
         B          4.586            56.06
         N          0.000            50.54
         N          0.994            44.25
         N          2.014            39.35
         N          2.990            31.16
         Cr1        0.000          1381.48
         Cr1        1.827           571.38
         Cr1       10.619           306.69
         Cr2        0.000          1381.48
         Cr2        1.827           571.38
         Cr2       10.619           306.69

       Values used:

         atom   Coordination number  R0_AB[au]  C6      C8
         B          3.337            3.039     62.89   2505.97
         B          3.336            3.039     62.89   2505.98
         B          3.336            3.039     62.89   2505.99
         B          3.335            3.039     62.89   2506.01
         B          3.355            3.039     62.88   2505.51
         B          3.335            3.039     62.89   2506.00
         N          3.134            2.478     31.22    688.69
         N          3.143            2.478     31.21    688.62
         N          3.135            2.478     31.22    688.68
         N          3.134            2.478     31.22    688.70
         N          3.157            2.478     31.21    688.50
         N          3.135            2.478     31.22    688.69
         N          3.144            2.478     31.21    688.60
         N          3.134            2.478     31.22    688.69
         N          3.134            2.478     31.22    688.70
         B          3.348            3.039     62.88   2505.70
         B          3.336            3.039     62.89   2505.98
         B          3.335            3.039     62.89   2506.00
         B          3.355            3.039     62.88   2505.51
         B          3.337            3.039     62.89   2505.97
         B          3.348            3.039     62.88   2505.70
         N          3.144            2.478     31.21    688.60
         B          3.336            3.039     62.89   2506.00
         B          3.363            3.039     62.87   2505.28
         B          3.336            3.039     62.89   2506.00
         N          3.135            2.478     31.22    688.69
         N          3.143            2.478     31.21    688.62
         N          3.134            2.478     31.22    688.70
         N          3.134            2.478     31.22    688.70
         N          3.135            2.478     31.22    688.68
         N          3.134            2.478     31.22    688.70
         B          3.336            3.039     62.89   2506.00
         Cr1        1.061            3.252    634.10  58520.23
         Cr2        1.061            3.252    634.10  58520.23

         Molecular C6 ( Ry / a.u.^6 ) =     69267.67


     Subspace diagonalization in iterative solution of the eigenvalue problem:
     one sub-group per band group will be used
     scalapack distributed-memory algorithm (size of sub-group:  6*  6 procs)

 
     Parallelization info
     --------------------
     sticks:   dense  smooth     PW     G-vecs:    dense   smooth      PW
     Min         235      98     26                36277     9874    1408
     Max         236      99     27                36282     9883    1425
     Sum       11311    4741   1285              1741401   474235   68095
 


     bravais-lattice index     =            4
     lattice parameter (alat)  =      18.9275  a.u.
     unit-cell volume          =   10553.3021 (a.u.)^3
     number of atoms/cell      =           34
     number of atomic types    =            4
     number of electrons       =       156.00
     number of Kohn-Sham states=           94
     kinetic-energy cutoff     =      48.0000  Ry
     charge density cutoff     =     457.0000  Ry
     scf convergence threshold =      1.0E-07
     mixing beta               =       0.5000
     number of iterations used =            8  plain     mixing
     Exchange-correlation= SLA  PW   PBX  PBC
                           (   1   4   3   4   0   0   0)

     celldm(1)=  18.927497  celldm(2)=   0.000000  celldm(3)=   1.797125
     celldm(4)=   0.000000  celldm(5)=   0.000000  celldm(6)=   0.000000

     crystal axes: (cart. coord. in units of alat)
               a(1) = (   1.000000   0.000000   0.000000 )  
               a(2) = (  -0.500000   0.866025   0.000000 )  
               a(3) = (   0.000000   0.000000   1.797125 )  

     reciprocal axes: (cart. coord. in units 2 pi/alat)
               b(1) = (  1.000000  0.577350  0.000000 )  
               b(2) = (  0.000000  1.154701  0.000000 )  
               b(3) = (  0.000000  0.000000  0.556444 )  


     PseudoPot. # 1 for B  read from file:
     /home/sf05/q-e-qe-6.7MaX-Release/pseudo/B.pbe-n-kjpaw_psl.1.0.0.UPF
     MD5 check sum: d9c678ba5d3b2fd7b74e61139c9288d8
     Pseudo is Projector augmented-wave + core cor, Zval =  3.0
     Generated using "atomic" code by A. Dal Corso  v.5.1.2
     Shape of augmentation charge: PSQ
     Using radial grid of 1059 points,  4 beta functions with: 
                l(1) =   0
                l(2) =   0
                l(3) =   1
                l(4) =   1
     Q(r) pseudized with 0 coefficients 


     PseudoPot. # 2 for N  read from file:
     /home/sf05/q-e-qe-6.7MaX-Release/pseudo/N.pbe-n-kjpaw_psl.1.0.0.UPF
     MD5 check sum: e0e4e94a9c4025c5b51bd7d8793849bd
     Pseudo is Projector augmented-wave + core cor, Zval =  5.0
     Generated using "atomic" code by A. Dal Corso  v.5.1.2
     Shape of augmentation charge: PSQ
     Using radial grid of 1085 points,  4 beta functions with: 
                l(1) =   0
                l(2) =   0
                l(3) =   1
                l(4) =   1
     Q(r) pseudized with 0 coefficients 


     PseudoPot. # 3 for Cr read from file:
     /home/sf05/q-e-qe-6.7MaX-Release/pseudo/Cr.pbe-spn-kjpaw_psl.1.0.0.UPF
     MD5 check sum: 198f1a2427a48552563eee314eba32ba
     Pseudo is Projector augmented-wave + core cor, Zval = 14.0
     Generated using &quot;atomic&quot; code by A. Dal Corso  v.6.3
     Shape of augmentation charge: PSQ
     Using radial grid of 1183 points,  6 beta functions with: 
                l(1) =   0
                l(2) =   0
                l(3) =   1
                l(4) =   1
                l(5) =   2
                l(6) =   2
     Q(r) pseudized with 0 coefficients 


     PseudoPot. # 4 for Cr read from file:
     /home/sf05/q-e-qe-6.7MaX-Release/pseudo/Cr.pbe-spn-kjpaw_psl.1.0.0.UPF
     MD5 check sum: 198f1a2427a48552563eee314eba32ba
     Pseudo is Projector augmented-wave + core cor, Zval = 14.0
     Generated using &quot;atomic&quot; code by A. Dal Corso  v.6.3
     Shape of augmentation charge: PSQ
     Using radial grid of 1183 points,  6 beta functions with: 
                l(1) =   0
                l(2) =   0
                l(3) =   1
                l(4) =   1
                l(5) =   2
                l(6) =   2
     Q(r) pseudized with 0 coefficients 


     atomic species   valence    mass     pseudopotential
        B              3.00    10.81100     B ( 1.00)
        N              5.00    14.00674     N ( 1.00)
        Cr1           14.00    51.99610     Cr( 1.00)
        Cr2           14.00    51.99610     Cr( 1.00)

     Starting magnetic structure 
     atomic species   magnetization
        B            0.000
        N            0.000
        Cr1          1.000
        Cr2          1.000

     No symmetry found



   Cartesian axes

     site n.     atom                  positions (alat units)
         1           B   tau(   1) = (  -0.1250000   0.2165064   0.8985623  )
         2           B   tau(   2) = (   0.3750000   0.6495191   0.8985623  )
         3           B   tau(   3) = (   0.2500000   0.0000000   0.8985623  )
         4           B   tau(   4) = (   0.7500000   0.0000000   0.8985623  )
         5           B   tau(   5) = (   0.1250000   0.2165064   0.8985623  )
         6           B   tau(   6) = (  -0.3750000   0.6495191   0.8985623  )
         7           N   tau(   7) = (   0.7500005   0.2886748   0.8985623  )
         8           N   tau(   8) = (   0.3750005   0.5051812   0.8985623  )
         9           N   tau(   9) = (   0.3750005   0.0721685   0.8985623  )
        10           N   tau(  10) = (   0.6250005   0.0721685   0.8985623  )
        11           N   tau(  11) = (   0.2500005   0.2886748   0.8985623  )
        12           N   tau(  12) = (   0.6250005   0.5051812   0.8985623  )
        13           N   tau(  13) = (   0.0000005   0.2886748   0.8985623  )
        14           N   tau(  14) = (   0.2500005   0.7216875   0.8985623  )
        15           N   tau(  15) = (  -0.2499995   0.7216875   0.8985623  )
        16           B   tau(  16) = (   0.0000000   0.4330127   0.8985623  )
        17           B   tau(  17) = (   0.1250000   0.6495191   0.8985623  )
        18           B   tau(  18) = (  -0.1250000   0.6495191   0.8985623  )
        19           B   tau(  19) = (   0.3750000   0.2165064   0.8985623  )
        20           B   tau(  20) = (   0.6250000   0.2165064   0.8985623  )
        21           B   tau(  21) = (   0.5000000   0.4330127   0.8985623  )
        22           N   tau(  22) = (   0.5000005   0.2886748   0.8985623  )
        23           B   tau(  23) = (  -0.2500000   0.4330127   0.8985623  )
        24           B   tau(  24) = (   0.2500000   0.4330127   0.8985623  )
        25           B   tau(  25) = (   0.5000000   0.0000000   0.8985623  )
        26           N   tau(  26) = (  -0.1249995   0.5051812   0.8985623  )
        27           N   tau(  27) = (   0.1250005   0.5051812   0.8985623  )
        28           N   tau(  28) = (   0.0000005   0.7216875   0.8985623  )
        29           N   tau(  29) = (   0.5000005   0.7216875   0.8985623  )
        30           N   tau(  30) = (   0.1250005   0.0721685   0.8985623  )
        31           N   tau(  31) = (   0.8750005   0.0721685   0.8985623  )
        32           B   tau(  32) = (   0.0000000   0.0000000   0.8985623  )
        33           Cr1 tau(  33) = (   0.3700000   0.3464102   1.2040735  )
        34           Cr2 tau(  34) = (   0.1300000   0.3464102   1.2040735  )

     number of k points=    15  Gaussian smearing, width (Ry)=  0.0000
                       cart. coord. in units 2pi/alat
        k(    1) = (   0.1666667   0.2886751   0.0000000), wk =   0.0740741
        k(    2) = (   0.1666667  -0.4811252   0.0000000), wk =   0.0740741
        k(    3) = (   0.1666667  -0.0962250   0.0000000), wk =   0.0740741
        k(    4) = (  -0.5000000  -0.8660254   0.0000000), wk =   0.0370370
        k(    5) = (  -0.1666667   0.2886751   0.0000000), wk =   0.0740741
        k(    6) = (   0.3333333   0.0000000   0.0000000), wk =   0.0740741
        k(    7) = (  -0.1666667  -0.4811252   0.0000000), wk =   0.0740741
        k(    8) = (   0.5000000  -0.0962250   0.0000000), wk =   0.0740741
        k(    9) = (  -0.3333333  -0.3849002   0.0000000), wk =   0.0740741
        k(   10) = (   0.5000000   0.0962250   0.0000000), wk =   0.0740741
        k(   11) = (  -0.3333333   0.3849002   0.0000000), wk =   0.0740741
        k(   12) = (  -0.1666667  -0.0962250   0.0000000), wk =   0.0740741
        k(   13) = (  -0.0000000  -0.1924501   0.0000000), wk =   0.0740741
        k(   14) = (   0.5000000  -0.8660254   0.0000000), wk =   0.0370370
        k(   15) = (  -1.0000000   0.0000000   0.0000000), wk =   0.0370370

     Dense  grid:  1741401 G-vectors     FFT dimensions: ( 135, 135, 240)

     Smooth grid:   474235 G-vectors     FFT dimensions: (  90,  90, 160)

     Estimated max dynamical RAM per process >     218.62 MB

     Estimated total dynamical RAM >      10.25 GB
     Generating pointlists ...
     new r_m :   0.0595 (alat units)  1.1269 (a.u.) for type    1
     new r_m :   0.0595 (alat units)  1.1269 (a.u.) for type    2
     new r_m :   0.0990 (alat units)  1.8738 (a.u.) for type    3
     new r_m :   0.0990 (alat units)  1.8738 (a.u.) for type    4

     Initial potential from superposition of free atoms

     starting charge  155.99382, renormalised to  156.00000

     negative rho (up, down):  6.804E-03 4.655E-04
     Starting wfcs are  148 randomized atomic wfcs
     Checking if some PAW data can be deallocated... 

     total cpu time spent up to now is       20.8 secs

     Self-consistent Calculation

     iteration #  1     ecut=    48.00 Ry     beta= 0.50
     Davidson diagonalization with overlap
     ethr =  1.00E-02,  avg # of iterations =  2.9

     negative rho (up, down):  5.044E-03 2.906E-03

     total cpu time spent up to now is       62.3 secs

     total energy              =   -1130.67912036 Ry
     estimated scf accuracy    <      11.37210680 Ry

     total magnetization       =    12.00 Bohr mag/cell
     absolute magnetization    =    12.10 Bohr mag/cell

     iteration #  2     ecut=    48.00 Ry     beta= 0.50
     Davidson diagonalization with overlap
     ethr =  7.29E-03,  avg # of iterations =  2.8

     negative rho (up, down):  9.067E-03 7.386E-03

     total cpu time spent up to now is      101.3 secs

     total energy              =   -1133.00208005 Ry
     estimated scf accuracy    <       3.48861206 Ry

     total magnetization       =    10.00 Bohr mag/cell
     absolute magnetization    =    10.14 Bohr mag/cell

     iteration #  3     ecut=    48.00 Ry     beta= 0.50
     Davidson diagonalization with overlap
     ethr =  2.24E-03,  avg # of iterations =  7.6

     negative rho (up, down):  4.228E-03 3.627E-03

     total cpu time spent up to now is      141.6 secs

     total energy              =   -1133.53025060 Ry
     estimated scf accuracy    <       0.87017247 Ry

     total magnetization       =    10.00 Bohr mag/cell
     absolute magnetization    =    10.11 Bohr mag/cell

     iteration #  4     ecut=    48.00 Ry     beta= 0.50
     Davidson diagonalization with overlap
     ethr =  5.58E-04,  avg # of iterations =  6.6

     negative rho (up, down):  8.470E-03 8.446E-03

     total cpu time spent up to now is      179.1 secs

     total energy              =   -1133.71248302 Ry
     estimated scf accuracy    <       0.71175245 Ry

     total magnetization       =    10.00 Bohr mag/cell
     absolute magnetization    =    10.01 Bohr mag/cell

     iteration #  5     ecut=    48.00 Ry     beta= 0.50
     Davidson diagonalization with overlap
     ethr =  4.56E-04,  avg # of iterations =  6.7

     negative rho (up, down):  4.574E-03 4.840E-03

     total cpu time spent up to now is      216.9 secs

     total energy              =   -1133.78917086 Ry
     estimated scf accuracy    <       0.06053448 Ry

     total magnetization       =    10.00 Bohr mag/cell
     absolute magnetization    =    10.02 Bohr mag/cell

     iteration #  6     ecut=    48.00 Ry     beta= 0.50
     Davidson diagonalization with overlap
     ethr =  3.88E-05,  avg # of iterations = 10.0

     negative rho (up, down):  3.745E-03 4.147E-03

     total cpu time spent up to now is      261.8 secs

     total energy              =   -1133.79390660 Ry
     estimated scf accuracy    <       0.01498256 Ry

     total magnetization       =    10.00 Bohr mag/cell
     absolute magnetization    =    10.02 Bohr mag/cell

     iteration #  7     ecut=    48.00 Ry     beta= 0.50
     Davidson diagonalization with overlap
     ethr =  9.60E-06,  avg # of iterations =  8.2

     negative rho (up, down):  3.575E-03 4.067E-03

     total cpu time spent up to now is      302.9 secs

     total energy              =   -1133.79727987 Ry
     estimated scf accuracy    <       0.00499824 Ry

     total magnetization       =    10.00 Bohr mag/cell
     absolute magnetization    =    10.01 Bohr mag/cell

     iteration #  8     ecut=    48.00 Ry     beta= 0.50
     Davidson diagonalization with overlap
     ethr =  3.20E-06,  avg # of iterations =  7.7

     negative rho (up, down):  3.311E-03 3.927E-03

     total cpu time spent up to now is      341.6 secs

     total energy              =   -1133.79783547 Ry
     estimated scf accuracy    <       0.00113059 Ry

     total magnetization       =    10.00 Bohr mag/cell
     absolute magnetization    =    10.01 Bohr mag/cell

     iteration #  9     ecut=    48.00 Ry     beta= 0.50
     Davidson diagonalization with overlap
     ethr =  7.25E-07,  avg # of iterations =  4.1

     negative rho (up, down):  3.232E-03 3.910E-03

     total cpu time spent up to now is      375.2 secs

     total energy              =   -1133.79801115 Ry
     estimated scf accuracy    <       0.00011354 Ry

     total magnetization       =    10.00 Bohr mag/cell
     absolute magnetization    =    10.01 Bohr mag/cell

     iteration # 10     ecut=    48.00 Ry     beta= 0.50
     Davidson diagonalization with overlap
     ethr =  7.28E-08,  avg # of iterations =  4.5

     negative rho (up, down):  3.217E-03 3.919E-03

     total cpu time spent up to now is      416.8 secs

     total energy              =   -1133.79807454 Ry
     estimated scf accuracy    <       0.00001850 Ry

     total magnetization       =    10.00 Bohr mag/cell
     absolute magnetization    =    10.01 Bohr mag/cell

     iteration # 11     ecut=    48.00 Ry     beta= 0.50
     Davidson diagonalization with overlap
     ethr =  1.19E-08,  avg # of iterations =  3.4

     negative rho (up, down):  3.211E-03 3.932E-03

     total cpu time spent up to now is      451.7 secs

     total energy              =   -1133.79809148 Ry
     estimated scf accuracy    <       0.00000634 Ry

     total magnetization       =    10.00 Bohr mag/cell
     absolute magnetization    =    10.01 Bohr mag/cell

     iteration # 12     ecut=    48.00 Ry     beta= 0.50
     Davidson diagonalization with overlap
     ethr =  4.07E-09,  avg # of iterations =  4.0

     negative rho (up, down):  3.208E-03 3.937E-03

     total cpu time spent up to now is      485.8 secs

     total energy              =   -1133.79809721 Ry
     estimated scf accuracy    <       0.00000150 Ry

     total magnetization       =    10.00 Bohr mag/cell
     absolute magnetization    =    10.01 Bohr mag/cell

     iteration # 13     ecut=    48.00 Ry     beta= 0.50
     Davidson diagonalization with overlap
     ethr =  9.60E-10,  avg # of iterations =  4.0

     negative rho (up, down):  3.205E-03 3.937E-03

     total cpu time spent up to now is      520.8 secs

     total energy              =   -1133.79809912 Ry
     estimated scf accuracy    <       0.00000024 Ry

     total magnetization       =    10.00 Bohr mag/cell
     absolute magnetization    =    10.01 Bohr mag/cell

     iteration # 14     ecut=    48.00 Ry     beta= 0.50
     Davidson diagonalization with overlap
     ethr =  1.51E-10,  avg # of iterations =  4.7

     negative rho (up, down):  3.204E-03 3.936E-03
 
     Magnetic moment per site:
     atom:    1    charge:    0.8807    magn:    0.0007    constr:    0.0000
     atom:    2    charge:    0.8803    magn:    0.0006    constr:    0.0000
     atom:    3    charge:    0.8801    magn:    0.0001    constr:    0.0000
     atom:    4    charge:    0.8804    magn:    0.0001    constr:    0.0000
     atom:    5    charge:    0.8802    magn:    0.0003    constr:    0.0000
     atom:    6    charge:    0.8804    magn:    0.0001    constr:    0.0000
     atom:    7    charge:    2.8610    magn:    0.0003    constr:    0.0000
     atom:    8    charge:    2.8608    magn:    0.0049    constr:    0.0000
     atom:    9    charge:    2.8608    magn:    0.0018    constr:    0.0000
     atom:   10    charge:    2.8609    magn:    0.0004    constr:    0.0000
     atom:   11    charge:    2.8605    magn:    0.0098    constr:    0.0000
     atom:   12    charge:    2.8610    magn:    0.0005    constr:    0.0000
     atom:   13    charge:    2.8596    magn:    0.0052    constr:    0.0000
     atom:   14    charge:    2.8598    magn:    0.0003    constr:    0.0000
     atom:   15    charge:    2.8600    magn:    0.0000    constr:    0.0000
     atom:   16    charge:    0.8804    magn:   -0.0000    constr:    0.0000
     atom:   17    charge:    0.8799    magn:    0.0006    constr:    0.0000
     atom:   18    charge:    0.8800    magn:    0.0001    constr:    0.0000
     atom:   19    charge:    0.8797    magn:    0.0003    constr:    0.0000
     atom:   20    charge:    0.8801    magn:    0.0007    constr:    0.0000
     atom:   21    charge:    0.8801    magn:   -0.0000    constr:    0.0000
     atom:   22    charge:    2.8609    magn:    0.0052    constr:    0.0000
     atom:   23    charge:    0.8803    magn:    0.0001    constr:    0.0000
     atom:   24    charge:    0.8791    magn:   -0.0004    constr:    0.0000
     atom:   25    charge:    0.8799    magn:    0.0001    constr:    0.0000
     atom:   26    charge:    2.8599    magn:    0.0005    constr:    0.0000
     atom:   27    charge:    2.8596    magn:    0.0049    constr:    0.0000
     atom:   28    charge:    2.8598    magn:    0.0002    constr:    0.0000
     atom:   29    charge:    2.8596    magn:    0.0002    constr:    0.0000
     atom:   30    charge:    2.8595    magn:    0.0018    constr:    0.0000
     atom:   31    charge:    2.8596    magn:    0.0004    constr:    0.0000
     atom:   32    charge:    0.8802    magn:    0.0001    constr:    0.0000
     atom:   33    charge:   11.9894    magn:    3.8636    constr:    0.0000
     atom:   34    charge:   11.9892    magn:    3.8635    constr:    0.0000

     total cpu time spent up to now is      558.0 secs

     End of self-consistent calculation

 ------ SPIN UP ------------


          k = 0.1667 0.2887 0.0000 ( 59267 PWs)   bands (ev):

   -73.0112 -72.9515 -44.7460 -44.3847 -44.3587 -44.3529 -44.3391 -44.3128
   -21.2434 -20.6585 -20.6506 -20.1017 -20.0920 -19.5848 -19.5782 -19.0958
   -18.6948 -18.6869 -18.4547 -18.4460 -18.1912 -18.0818 -18.0739 -17.8460
   -12.4809 -12.2037 -12.1972 -11.8173 -11.8140 -11.6551 -11.1898 -11.1841
   -10.3881 -10.3641 -10.1147 -10.1105  -9.5863  -9.5835  -8.8384  -8.8200
    -8.8182  -8.7631  -8.7575  -8.5928  -8.1933  -8.0576  -8.0031  -7.8260
    -7.8229  -7.4356  -7.4326  -7.2748  -7.2591  -7.2050  -7.2024  -6.9582
    -6.9503  -6.5711  -6.5259  -6.1502  -6.1491  -5.8687  -5.4148  -5.2928
    -5.2734  -5.1965  -4.9079  -4.8988  -4.5053  -4.3523  -4.3374  -3.9771
    -3.3448  -2.6125  -2.5370  -2.2302  -1.8251  -1.7843  -1.4402  -1.4373
    -1.2575  -1.1826  -1.1376  -0.4345   0.5818   0.9761   1.0653   1.1956
     1.3013   1.4810   1.5192   1.5884   1.6127   1.7839

          k = 0.1667-0.4811 0.0000 ( 59291 PWs)   bands (ev):

   -73.0112 -72.9515 -44.7460 -44.3847 -44.3587 -44.3529 -44.3391 -44.3128
   -21.1132 -20.9082 -20.7192 -20.1572 -19.8007 -19.4627 -19.3134 -19.1711
   -19.0106 -18.7750 -18.6382 -18.5402 -18.1455 -18.0851 -17.9184 -17.7202
   -12.3451 -12.1101 -12.0407 -11.9028 -11.6772 -11.6546 -11.5492 -10.9381
   -10.8867 -10.6200 -10.5193  -9.8567  -9.6897  -9.3324  -9.1072  -8.6673
    -8.6193  -8.5495  -8.3851  -8.3651  -8.1577  -8.1171  -8.0596  -8.0462
    -7.6851  -7.6196  -7.4907  -7.4703  -7.3526  -7.1673  -7.0639  -6.8575
    -6.6184  -6.3857  -6.1762  -6.1541  -5.9670  -5.9255  -5.7800  -5.7430
    -5.4476  -5.3931  -5.2095  -5.0381  -4.4438  -4.3439  -4.0854  -3.7651
    -3.3433  -2.6126  -2.5369  -2.2267  -1.8247  -1.7841  -1.4419  -1.4381
    -1.2581  -1.1822  -1.1381  -0.4393   0.4996   1.0213   1.0485   1.1280
     1.2294   1.2788   1.3855   1.8546   1.9017   2.1390

          k = 0.1667-0.0962 0.0000 ( 59226 PWs)   bands (ev):

   -73.0112 -72.9515 -44.7460 -44.3847 -44.3587 -44.3529 -44.3391 -44.3128
   -21.3098 -20.5323 -20.3424 -20.3345 -19.9863 -19.9757 -19.8019 -18.7264
   -18.7181 -18.3715 -18.3635 -18.3526 -18.2659 -18.2570 -18.0744 -18.0668
   -12.5042 -12.4985 -12.4046 -11.5790 -11.5718 -11.4239 -11.4157 -10.9229
   -10.9198  -9.9250  -9.9230  -9.6723  -9.3723  -9.3677  -9.2260  -9.2248
    -9.0382  -9.0367  -8.9217  -8.3194  -8.3182  -7.8983  -7.8951  -7.8791
    -7.8412  -7.7666  -7.6071  -7.5767  -7.1362  -7.0842  -6.9557  -6.8849
    -6.8811  -6.8468  -6.5277  -6.5244  -6.2538  -5.3507  -5.3119  -5.1396
    -5.0616  -4.8039  -4.7980  -4.7525  -4.6110  -4.6001  -4.3537  -4.3256
    -3.3467  -2.6124  -2.5372  -2.2337  -1.8265  -1.7844  -1.4393  -1.4360
    -1.2567  -1.1830  -1.1373  -0.4296   0.6783   0.9212   1.0438   1.2043
     1.2644   1.3434   1.5906   1.5964   1.7318   1.9854

          k =-0.5000-0.8660 0.0000 ( 59292 PWs)   bands (ev):

   -73.0112 -72.9515 -44.7460 -44.3847 -44.3587 -44.3529 -44.3391 -44.3128
   -21.0487 -21.0406 -20.4670 -20.4591 -19.4230 -19.4150 -19.4139 -19.4034
   -18.9896 -18.9842 -18.3226 -18.3170 -18.3163 -18.3053 -17.7907 -17.7839
   -12.0685 -12.0629 -12.0607 -12.0542 -11.8765 -11.8680 -11.3275 -11.3220
   -10.2314 -10.2279 -10.1320 -10.1285 -10.1254 -10.1228  -8.5984  -8.5444
    -8.5433  -8.5415  -8.5364  -8.5307  -7.8609  -7.8592  -7.8552  -7.8541
    -7.8188  -7.8181  -7.7798  -7.7473  -7.4868  -7.4822  -6.6082  -6.6036
    -6.3453  -6.3373  -6.3060  -6.2904  -6.1865  -6.1835  -5.7074  -5.6943
    -5.5424  -5.5376  -4.7305  -4.7226  -4.6972  -4.6742  -3.8903  -3.8618
    -3.3388  -2.6118  -2.5375  -2.2277  -1.8250  -1.7849  -1.4401  -1.4380
    -1.2648  -1.1862  -1.1365  -0.5416   0.6430   1.0170   1.0975   1.1318
     1.4963   1.5760   1.6034   1.6139   1.7200   1.8882

          k =-0.1667 0.2887 0.0000 ( 59267 PWs)   bands (ev):

   -73.0112 -72.9515 -44.7460 -44.3847 -44.3587 -44.3529 -44.3391 -44.3128
   -21.2434 -20.6585 -20.6506 -20.1017 -20.0919 -19.5848 -19.5782 -19.0958
   -18.6948 -18.6870 -18.4548 -18.4459 -18.1912 -18.0818 -18.0740 -17.8460
   -12.4808 -12.2037 -12.1972 -11.8173 -11.8141 -11.6551 -11.1897 -11.1841
   -10.3881 -10.3641 -10.1147 -10.1106  -9.5862  -9.5835  -8.8384  -8.8200
    -8.8181  -8.7632  -8.7576  -8.5927  -8.1934  -8.0576  -8.0031  -7.8260
    -7.8229  -7.4356  -7.4326  -7.2748  -7.2591  -7.2049  -7.2024  -6.9582
    -6.9503  -6.5711  -6.5259  -6.1502  -6.1490  -5.8687  -5.4149  -5.2928
    -5.2735  -5.1964  -4.9079  -4.8987  -4.5054  -4.3523  -4.3374  -3.9771
    -3.3448  -2.6125  -2.5370  -2.2302  -1.8251  -1.7843  -1.4402  -1.4373
    -1.2575  -1.1826  -1.1376  -0.4346   0.5818   0.9761   1.0653   1.1956
     1.3013   1.4810   1.5192   1.5884   1.6127   1.7839

          k = 0.3333 0.0000 0.0000 ( 59267 PWs)   bands (ev):

   -73.0112 -72.9515 -44.7460 -44.3847 -44.3587 -44.3529 -44.3391 -44.3128
   -21.2429 -20.6828 -20.6262 -20.1048 -20.0872 -19.6102 -19.5548 -19.0980
   -18.7109 -18.6657 -18.4594 -18.4430 -18.1868 -18.1047 -18.0579 -17.8450
   -12.4797 -12.2074 -12.1941 -11.8273 -11.8069 -11.6531 -11.2062 -11.1675
   -10.3877 -10.3635 -10.1277 -10.0985  -9.5918  -9.5766  -8.8401  -8.8232
    -8.8105  -8.7849  -8.7372  -8.5936  -8.1953  -8.0988  -7.9614  -7.8255
    -7.8213  -7.4412  -7.4266  -7.2895  -7.2393  -7.2144  -7.1926  -6.9618
    -6.9483  -6.6141  -6.4894  -6.1530  -6.1454  -5.8761  -5.4148  -5.3068
    -5.2468  -5.1968  -4.9261  -4.8833  -4.4964  -4.3825  -4.3204  -3.9762
    -3.3422  -2.6117  -2.5376  -2.2309  -1.8263  -1.7848  -1.4391  -1.4371
    -1.2610  -1.1853  -1.1365  -0.5059   0.6795   0.9648   1.2056   1.2293
     1.3568   1.4687   1.5411   1.5733   1.5958   1.8307

          k =-0.1667-0.4811 0.0000 ( 59291 PWs)   bands (ev):

   -73.0112 -72.9515 -44.7460 -44.3847 -44.3587 -44.3529 -44.3391 -44.3128
   -21.1132 -20.9082 -20.7192 -20.1572 -19.8007 -19.4627 -19.3134 -19.1711
   -19.0106 -18.7750 -18.6382 -18.5402 -18.1455 -18.0851 -17.9184 -17.7202
   -12.3451 -12.1101 -12.0407 -11.9028 -11.6772 -11.6546 -11.5492 -10.9381
   -10.8867 -10.6200 -10.5193  -9.8567  -9.6897  -9.3325  -9.1072  -8.6673
    -8.6193  -8.5495  -8.3851  -8.3651  -8.1576  -8.1171  -8.0597  -8.0462
    -7.6851  -7.6197  -7.4906  -7.4703  -7.3526  -7.1673  -7.0639  -6.8575
    -6.6184  -6.3857  -6.1762  -6.1542  -5.9670  -5.9254  -5.7799  -5.7430
    -5.4477  -5.3931  -5.2095  -5.0381  -4.4438  -4.3439  -4.0854  -3.7651
    -3.3433  -2.6126  -2.5369  -2.2267  -1.8247  -1.7841  -1.4419  -1.4381
    -1.2581  -1.1822  -1.1381  -0.4393   0.4996   1.0213   1.0485   1.1280
     1.2293   1.2788   1.3855   1.8546   1.9017   2.1390

          k = 0.5000-0.0962 0.0000 ( 59291 PWs)   bands (ev):

   -73.0112 -72.9515 -44.7460 -44.3847 -44.3587 -44.3529 -44.3391 -44.3128
   -21.1102 -20.9162 -20.7141 -20.1554 -19.8006 -19.4648 -19.3195 -19.1657
   -19.0119 -18.7761 -18.6274 -18.5465 -18.1334 -18.1021 -17.9153 -17.7198
   -12.3431 -12.1109 -12.0389 -11.9073 -11.6900 -11.6399 -11.5510 -10.9389
   -10.8841 -10.6179 -10.5221  -9.8547  -9.6901  -9.3333  -9.1066  -8.6575
    -8.6200  -8.5472  -8.3936  -8.3892  -8.1557  -8.0994  -8.0729  -8.0339
    -7.6809  -7.6202  -7.4897  -7.4715  -7.3466  -7.1685  -7.0649  -6.8566
    -6.6188  -6.3939  -6.1925  -6.1535  -5.9533  -5.9249  -5.7792  -5.7454
    -5.4488  -5.3946  -5.1847  -5.0517  -4.4214  -4.3721  -4.0830  -3.7652
    -3.3390  -2.6118  -2.5375  -2.2277  -1.8255  -1.7849  -1.4402  -1.4380
    -1.2647  -1.1862  -1.1366  -0.5412   0.6325   1.0057   1.0802   1.1862
     1.2778   1.3503   1.6535   1.8082   1.8984   1.9577

          k =-0.3333-0.3849 0.0000 ( 59291 PWs)   bands (ev):

   -73.0112 -72.9515 -44.7460 -44.3847 -44.3587 -44.3529 -44.3391 -44.3128
   -21.1113 -20.9134 -20.7161 -20.1551 -19.8028 -19.4629 -19.3141 -19.1695
   -19.0149 -18.7740 -18.6289 -18.5458 -18.1358 -18.0990 -17.9154 -17.7200
   -12.3445 -12.1079 -12.0417 -11.9054 -11.6786 -11.6530 -11.5502 -10.9387
   -10.8842 -10.6173 -10.5225  -9.8549  -9.6902  -9.3332  -9.1078  -8.6607
    -8.6185  -8.5491  -8.3868  -8.3827  -8.1572  -8.1064  -8.0595  -8.0488
    -7.6812  -7.6187  -7.4965  -7.4651  -7.3450  -7.1686  -7.0655  -6.8646
    -6.6169  -6.3870  -6.1762  -6.1560  -5.9643  -5.9236  -5.7794  -5.7555
    -5.4487  -5.3885  -5.1862  -5.0521  -4.4252  -4.3682  -4.0828  -3.7651
    -3.3403  -2.6121  -2.5372  -2.2274  -1.8249  -1.7847  -1.4407  -1.4382
    -1.2628  -1.1849  -1.1371  -0.5102   0.5882   1.0154   1.0805   1.1503
     1.2450   1.3767   1.5115   1.8544   1.9167   1.9741

          k = 0.5000 0.0962 0.0000 ( 59291 PWs)   bands (ev):

   -73.0112 -72.9515 -44.7460 -44.3847 -44.3587 -44.3529 -44.3391 -44.3128
   -21.1102 -20.9162 -20.7141 -20.1554 -19.8006 -19.4648 -19.3195 -19.1657
   -19.0119 -18.7761 -18.6274 -18.5465 -18.1334 -18.1021 -17.9153 -17.7198
   -12.3431 -12.1110 -12.0389 -11.9073 -11.6900 -11.6398 -11.5510 -10.9389
   -10.8841 -10.6179 -10.5221  -9.8547  -9.6902  -9.3333  -9.1066  -8.6575
    -8.6200  -8.5473  -8.3936  -8.3892  -8.1557  -8.0994  -8.0729  -8.0339
    -7.6809  -7.6202  -7.4897  -7.4716  -7.3465  -7.1686  -7.0648  -6.8566
    -6.6188  -6.3939  -6.1925  -6.1535  -5.9533  -5.9249  -5.7793  -5.7454
    -5.4489  -5.3946  -5.1847  -5.0517  -4.4214  -4.3721  -4.0831  -3.7652
    -3.3390  -2.6118  -2.5375  -2.2277  -1.8255  -1.7849  -1.4402  -1.4380
    -1.2647  -1.1862  -1.1366  -0.5412   0.6325   1.0057   1.0802   1.1862
     1.2778   1.3503   1.6535   1.8085   1.8984   1.9577

          k =-0.3333 0.3849 0.0000 ( 59291 PWs)   bands (ev):

   -73.0112 -72.9515 -44.7460 -44.3847 -44.3587 -44.3529 -44.3391 -44.3128
   -21.1113 -20.9134 -20.7161 -20.1551 -19.8028 -19.4629 -19.3141 -19.1695
   -19.0149 -18.7740 -18.6289 -18.5458 -18.1358 -18.0990 -17.9154 -17.7200
   -12.3445 -12.1079 -12.0417 -11.9054 -11.6787 -11.6530 -11.5502 -10.9388
   -10.8842 -10.6173 -10.5225  -9.8550  -9.6902  -9.3332  -9.1078  -8.6607
    -8.6185  -8.5491  -8.3868  -8.3827  -8.1572  -8.1064  -8.0594  -8.0488
    -7.6811  -7.6187  -7.4965  -7.4651  -7.3450  -7.1686  -7.0656  -6.8646
    -6.6170  -6.3870  -6.1762  -6.1561  -5.9643  -5.9237  -5.7793  -5.7555
    -5.4486  -5.3885  -5.1862  -5.0521  -4.4252  -4.3682  -4.0827  -3.7651
    -3.3403  -2.6121  -2.5372  -2.2274  -1.8249  -1.7847  -1.4407  -1.4382
    -1.2628  -1.1849  -1.1371  -0.5102   0.5882   1.0154   1.0805   1.1503
     1.2450   1.3767   1.5115   1.8544   1.9167   1.9741

          k =-0.1667-0.0962 0.0000 ( 59226 PWs)   bands (ev):

   -73.0112 -72.9515 -44.7460 -44.3847 -44.3587 -44.3529 -44.3391 -44.3128
   -21.3098 -20.5323 -20.3424 -20.3345 -19.9863 -19.9757 -19.8019 -18.7264
   -18.7181 -18.3715 -18.3635 -18.3526 -18.2659 -18.2570 -18.0744 -18.0668
   -12.5042 -12.4984 -12.4046 -11.5790 -11.5718 -11.4239 -11.4157 -10.9229
   -10.9198  -9.9251  -9.9230  -9.6723  -9.3723  -9.3676  -9.2260  -9.2249
    -9.0382  -9.0368  -8.9217  -8.3195  -8.3183  -7.8983  -7.8951  -7.8791
    -7.8412  -7.7667  -7.6071  -7.5767  -7.1362  -7.0842  -6.9557  -6.8849
    -6.8811  -6.8468  -6.5277  -6.5244  -6.2539  -5.3507  -5.3119  -5.1395
    -5.0617  -4.8039  -4.7979  -4.7526  -4.6110  -4.6001  -4.3537  -4.3256
    -3.3467  -2.6124  -2.5372  -2.2337  -1.8265  -1.7844  -1.4393  -1.4360
    -1.2567  -1.1830  -1.1373  -0.4296   0.6783   0.9212   1.0438   1.2042
     1.2644   1.3435   1.5906   1.5965   1.7318   1.9854

          k =-0.0000-0.1925 0.0000 ( 59226 PWs)   bands (ev):

   -73.0112 -72.9515 -44.7460 -44.3847 -44.3587 -44.3529 -44.3391 -44.3128
   -21.3099 -20.5271 -20.3495 -20.3365 -19.9821 -19.9721 -19.8056 -18.7258
   -18.7148 -18.3945 -18.3628 -18.3504 -18.2513 -18.2500 -18.0783 -18.0681
   -12.5081 -12.4952 -12.4039 -11.5797 -11.5718 -11.4259 -11.4115 -10.9237
   -10.9207  -9.9263  -9.9221  -9.6722  -9.3740  -9.3642  -9.2271  -9.2250
    -9.0378  -9.0374  -8.9223  -8.3204  -8.3168  -7.8983  -7.8933  -7.8631
    -7.8404  -7.7684  -7.6193  -7.5959  -7.1021  -7.0935  -6.9542  -6.8863
    -6.8813  -6.8572  -6.5283  -6.5230  -6.2544  -5.3316  -5.3218  -5.1397
    -5.0613  -4.8559  -4.7839  -4.7485  -4.5928  -4.5851  -4.3494  -4.3381
    -3.3480  -2.6128  -2.5368  -2.2333  -1.8259  -1.7842  -1.4398  -1.4362
    -1.2551  -1.1816  -1.1377  -0.3875   0.6199   0.9205   0.9763   1.1795
     1.2282   1.3874   1.5837   1.6146   1.7027   1.9879

          k = 0.5000-0.8660 0.0000 ( 59292 PWs)   bands (ev):

   -73.0112 -72.9515 -44.7460 -44.3847 -44.3587 -44.3529 -44.3391 -44.3128
   -21.0487 -21.0406 -20.4670 -20.4591 -19.4230 -19.4151 -19.4139 -19.4034
   -18.9895 -18.9842 -18.3226 -18.3170 -18.3162 -18.3053 -17.7907 -17.7839
   -12.0685 -12.0629 -12.0607 -12.0543 -11.8765 -11.8679 -11.3274 -11.3220
   -10.2314 -10.2279 -10.1320 -10.1285 -10.1254 -10.1228  -8.5984  -8.5444
    -8.5432  -8.5415  -8.5365  -8.5307  -7.8609  -7.8592  -7.8552  -7.8540
    -7.8189  -7.8182  -7.7798  -7.7473  -7.4868  -7.4822  -6.6082  -6.6035
    -6.3453  -6.3373  -6.3060  -6.2904  -6.1863  -6.1835  -5.7074  -5.6943
    -5.5425  -5.5377  -4.7304  -4.7226  -4.6972  -4.6742  -3.8903  -3.8618
    -3.3388  -2.6118  -2.5375  -2.2277  -1.8250  -1.7849  -1.4401  -1.4380
    -1.2648  -1.1862  -1.1365  -0.5416   0.6430   1.0170   1.0976   1.1318
     1.4963   1.5760   1.6033   1.6140   1.7198   1.8881

          k =-1.0000 0.0000 0.0000 ( 59292 PWs)   bands (ev):

   -73.0112 -72.9515 -44.7460 -44.3847 -44.3587 -44.3529 -44.3391 -44.3128
   -21.0716 -21.0147 -20.4715 -20.4594 -19.4302 -19.4113 -19.4052 -19.4025
   -19.0101 -18.9655 -18.3706 -18.3273 -18.2880 -18.2759 -17.7934 -17.7831
   -12.1064 -12.0699 -12.0394 -12.0276 -11.8770 -11.8674 -11.3465 -11.3043
   -10.2417 -10.2331 -10.1281 -10.1280 -10.1211 -10.1184  -8.6313  -8.5731
    -8.5533  -8.5217  -8.5133  -8.4873  -7.8722  -7.8673  -7.8577  -7.8516
    -7.8107  -7.8094  -7.7802  -7.7629  -7.5105  -7.4608  -6.6082  -6.6007
    -6.3476  -6.3309  -6.2934  -6.2885  -6.2054  -6.1673  -5.7324  -5.6749
    -5.5628  -5.5174  -4.8203  -4.7106  -4.6651  -4.6341  -3.8810  -3.8708
    -3.3448  -2.6127  -2.5368  -2.2264  -1.8246  -1.7838  -1.4425  -1.4379
    -1.2555  -1.1810  -1.1384  -0.3986   0.4630   0.9980   1.0322   1.1175
     1.1659   1.5020   1.5667   1.6281   1.6423   1.9180

 ------ SPIN DOWN ----------


          k = 0.1667 0.2887 0.0000 ( 59267 PWs)   bands (ev):

   -68.8611 -68.7960 -40.7662 -40.3336 -40.2340 -40.1952 -40.1833 -40.1439
   -21.2391 -20.6530 -20.6478 -20.0974 -20.0879 -19.5792 -19.5755 -19.0914
   -18.6884 -18.6837 -18.4504 -18.4416 -18.1859 -18.0770 -18.0710 -17.8415
   -12.4781 -12.2008 -12.1947 -11.8146 -11.8119 -11.6527 -11.1863 -11.1820
   -10.3851 -10.3614 -10.1108 -10.1084  -9.5832  -9.5813  -8.8230  -8.8153
    -8.8097  -8.7598  -8.7558  -8.5902  -8.1909  -8.0298  -7.9944  -7.8234
    -7.8203  -7.4314  -7.4299  -7.2564  -7.2423  -7.2018  -7.2003  -6.9556
    -6.9477  -6.5467  -6.5184  -6.1472  -6.1465  -5.8510  -5.4115  -5.2692
    -5.2582  -5.1936  -4.8935  -4.8831  -4.4856  -4.3365  -4.3265  -3.9613
    -1.5458   0.4846   0.5153   0.6360   0.7221   1.1045   1.2288   1.2688
     1.3453   1.4663   1.5105   1.5732   1.6570   1.6846   1.7923   1.9021
     2.0733   2.1074   2.2087   2.2569   2.3104   2.3823

          k = 0.1667-0.4811 0.0000 ( 59291 PWs)   bands (ev):

   -68.8611 -68.7960 -40.7662 -40.3336 -40.2340 -40.1952 -40.1832 -40.1439
   -21.1085 -20.9047 -20.7150 -20.1529 -19.7965 -19.4585 -19.3091 -19.1667
   -19.0063 -18.7709 -18.6323 -18.5368 -18.1392 -18.0827 -17.9139 -17.7156
   -12.3423 -12.1073 -12.0384 -11.9003 -11.6748 -11.6521 -11.5465 -10.9353
   -10.8836 -10.6170 -10.5167  -9.8534  -9.6870  -9.3293  -9.1046  -8.6408
    -8.6165  -8.5462  -8.3827  -8.3515  -8.1551  -8.0998  -8.0568  -8.0439
    -7.6821  -7.6170  -7.4878  -7.4680  -7.3338  -7.1640  -7.0614  -6.8402
    -6.6150  -6.3690  -6.1577  -6.1514  -5.9515  -5.9221  -5.7770  -5.7260
    -5.4449  -5.3778  -5.1842  -5.0278  -4.4199  -4.3364  -4.0705  -3.7493
    -1.5381   0.4818   0.4992   0.6499   0.7258   1.0390   1.1382   1.1706
     1.2275   1.3740   1.6144   1.6603   1.6859   1.8126   1.8349   2.1077
     2.1520   2.1810   2.2063   2.2571   2.3064   2.3699

          k = 0.1667-0.0962 0.0000 ( 59226 PWs)   bands (ev):

   -68.8611 -68.7960 -40.7662 -40.3336 -40.2340 -40.1952 -40.1832 -40.1439
   -21.3056 -20.5275 -20.3384 -20.3308 -19.9812 -19.9719 -19.7984 -18.7210
   -18.7137 -18.3667 -18.3585 -18.3484 -18.2613 -18.2527 -18.0701 -18.0633
   -12.5014 -12.4959 -12.4020 -11.5761 -11.5695 -11.4211 -11.4132 -10.9199
   -10.9172  -9.9220  -9.9208  -9.6691  -9.3697  -9.3649  -9.2229  -9.2217
    -9.0358  -9.0340  -8.9009  -8.3161  -8.3149  -7.8954  -7.8924  -7.8552
    -7.8369  -7.7641  -7.5889  -7.5659  -7.1086  -7.0733  -6.9528  -6.8821
    -6.8788  -6.8358  -6.5247  -6.5219  -6.2511  -5.3245  -5.2990  -5.1365
    -5.0586  -4.7860  -4.7777  -4.7366  -4.5967  -4.5868  -4.3347  -4.3158
    -1.5536   0.4958   0.5181   0.6255   0.7210   1.0691   1.1367   1.2853
     1.3770   1.5193   1.5807   1.6707   1.6855   1.7307   1.8283   1.9298
     2.0227   2.0700   2.1014   2.2634   2.2880   2.3762

          k =-0.5000-0.8660 0.0000 ( 59292 PWs)   bands (ev):

   -68.8611 -68.7960 -40.7662 -40.3336 -40.2340 -40.1951 -40.1833 -40.1439
   -21.0428 -21.0379 -20.4628 -20.4553 -19.4180 -19.4106 -19.4091 -19.3999
   -18.9839 -18.9816 -18.3172 -18.3130 -18.3085 -18.3043 -17.7859 -17.7799
   -12.0647 -12.0592 -12.0586 -12.0530 -11.8738 -11.8659 -11.3241 -11.3199
   -10.2282 -10.2257 -10.1286 -10.1254 -10.1227 -10.1201  -8.5648  -8.5412
    -8.5394  -8.5387  -8.5353  -8.5223  -7.8580  -7.8565  -7.8526  -7.8515
    -7.8154  -7.8138  -7.7608  -7.7362  -7.4834  -7.4806  -6.6047  -6.6012
    -6.3202  -6.3111  -6.2940  -6.2791  -6.1828  -6.1810  -5.6893  -5.6827
    -5.5384  -5.5359  -4.7034  -4.6993  -4.6860  -4.6707  -3.8684  -3.8517
    -1.5223   0.2743   0.5063   0.6390   0.7219   1.0466   1.1538   1.3158
     1.4846   1.5173   1.5937   1.6343   1.6712   1.7587   1.8700   1.9434
     1.9712   2.1406   2.2327   2.2730   2.3260   2.3850

          k =-0.1667 0.2887 0.0000 ( 59267 PWs)   bands (ev):

   -68.8611 -68.7960 -40.7662 -40.3336 -40.2340 -40.1952 -40.1833 -40.1439
   -21.2391 -20.6530 -20.6478 -20.0974 -20.0879 -19.5792 -19.5755 -19.0914
   -18.6884 -18.6837 -18.4504 -18.4416 -18.1858 -18.0770 -18.0710 -17.8415
   -12.4781 -12.2008 -12.1947 -11.8146 -11.8119 -11.6528 -11.1862 -11.1820
   -10.3851 -10.3614 -10.1108 -10.1085  -9.5832  -9.5813  -8.8230  -8.8153
    -8.8097  -8.7598  -8.7558  -8.5902  -8.1909  -8.0298  -7.9944  -7.8234
    -7.8203  -7.4314  -7.4299  -7.2564  -7.2423  -7.2017  -7.2003  -6.9556
    -6.9478  -6.5467  -6.5184  -6.1472  -6.1465  -5.8510  -5.4116  -5.2692
    -5.2583  -5.1935  -4.8935  -4.8831  -4.4856  -4.3365  -4.3264  -3.9613
    -1.5458   0.4846   0.5153   0.6360   0.7221   1.1045   1.2288   1.2687
     1.3453   1.4663   1.5105   1.5731   1.6570   1.6845   1.7922   1.9021
     2.0730   2.1074   2.2084   2.2569   2.3103   2.3820

          k = 0.3333 0.0000 0.0000 ( 59267 PWs)   bands (ev):

   -68.8611 -68.7960 -40.7662 -40.3336 -40.2340 -40.1952 -40.1832 -40.1439
   -21.2387 -20.6766 -20.6241 -20.1000 -20.0839 -19.6037 -19.5527 -19.0933
   -18.7039 -18.6638 -18.4543 -18.4391 -18.1821 -18.0979 -18.0559 -17.8407
   -12.4773 -12.2034 -12.1925 -11.8239 -11.8050 -11.6509 -11.2026 -11.1656
   -10.3845 -10.3611 -10.1231 -10.0969  -9.5887  -9.5746  -8.8255  -8.8168
    -8.8036  -8.7809  -8.7359  -8.5910  -8.1925  -8.0671  -7.9569  -7.8229
    -7.8188  -7.4367  -7.4242  -7.2655  -7.2292  -7.2111  -7.1908  -6.9584
    -6.9463  -6.5855  -6.4845  -6.1500  -6.1429  -5.8561  -5.4115  -5.2838
    -5.2348  -5.1939  -4.9064  -4.8723  -4.4792  -4.3621  -4.3102  -3.9604
    -1.5357   0.3448   0.5133   0.6336   0.7234   1.0492   1.2088   1.4026
     1.4615   1.5039   1.5305   1.5983   1.6785   1.7083   1.7780   1.9783
     2.0355   2.1226   2.1806   2.2696   2.3340   2.4428

          k =-0.1667-0.4811 0.0000 ( 59291 PWs)   bands (ev):

   -68.8611 -68.7960 -40.7662 -40.3336 -40.2340 -40.1952 -40.1832 -40.1439
   -21.1085 -20.9047 -20.7150 -20.1529 -19.7965 -19.4585 -19.3091 -19.1667
   -19.0063 -18.7709 -18.6323 -18.5368 -18.1392 -18.0827 -17.9139 -17.7156
   -12.3423 -12.1073 -12.0384 -11.9003 -11.6748 -11.6521 -11.5466 -10.9353
   -10.8836 -10.6171 -10.5167  -9.8534  -9.6870  -9.3294  -9.1046  -8.6408
    -8.6165  -8.5463  -8.3827  -8.3515  -8.1551  -8.0998  -8.0568  -8.0440
    -7.6821  -7.6170  -7.4877  -7.4680  -7.3338  -7.1640  -7.0614  -6.8401
    -6.6150  -6.3690  -6.1577  -6.1515  -5.9515  -5.9221  -5.7770  -5.7260
    -5.4449  -5.3778  -5.1842  -5.0279  -4.4199  -4.3364  -4.0705  -3.7493
    -1.5381   0.4818   0.4992   0.6499   0.7258   1.0390   1.1382   1.1706
     1.2275   1.3740   1.6144   1.6602   1.6859   1.8126   1.8348   2.1077
     2.1521   2.1809   2.2063   2.2570   2.3063   2.3703

          k = 0.5000-0.0962 0.0000 ( 59291 PWs)   bands (ev):

   -68.8611 -68.7960 -40.7662 -40.3336 -40.2340 -40.1952 -40.1833 -40.1439
   -21.1060 -20.9116 -20.7106 -20.1513 -19.7965 -19.4603 -19.3144 -19.1621
   -19.0073 -18.7717 -18.6232 -18.5422 -18.1285 -18.0973 -17.9113 -17.7153
   -12.3407 -12.1080 -12.0367 -11.9043 -11.6866 -11.6383 -11.5484 -10.9359
   -10.8814 -10.6152 -10.5192  -9.8515  -9.6875  -9.3301  -9.1041  -8.6339
    -8.6171  -8.5443  -8.3868  -8.3714  -8.1533  -8.0872  -8.0691  -8.0326
    -7.6784  -7.6176  -7.4868  -7.4692  -7.3293  -7.1652  -7.0621  -6.8398
    -6.6153  -6.3744  -6.1698  -6.1509  -5.9419  -5.9215  -5.7763  -5.7274
    -5.4460  -5.3789  -5.1666  -5.0378  -4.4023  -4.3584  -4.0683  -3.7491
    -1.5224   0.2762   0.5025   0.6415   0.7231   1.0386   1.1249   1.1951
     1.3324   1.5204   1.6560   1.6861   1.7314   1.8195   1.9802   2.0185
     2.1185   2.1837   2.2240   2.2621   2.3239   2.3829

          k =-0.3333-0.3849 0.0000 ( 59291 PWs)   bands (ev):

   -68.8611 -68.7960 -40.7662 -40.3336 -40.2340 -40.1952 -40.1833 -40.1439
   -21.1069 -20.9092 -20.7123 -20.1511 -19.7983 -19.4586 -19.3097 -19.1653
   -19.0100 -18.7700 -18.6244 -18.5416 -18.1306 -18.0947 -17.9114 -17.7155
   -12.3417 -12.1054 -12.0391 -11.9028 -11.6760 -11.6505 -11.5475 -10.9358
   -10.8814 -10.6147 -10.5196  -9.8519  -9.6876  -9.3299  -9.1050  -8.6361
    -8.6158  -8.5459  -8.3841  -8.3641  -8.1547  -8.0922  -8.0566  -8.0463
    -7.6787  -7.6161  -7.4932  -7.4634  -7.3285  -7.1653  -7.0627  -6.8452
    -6.6135  -6.3696  -6.1583  -6.1527  -5.9496  -5.9205  -5.7766  -5.7347
    -5.4458  -5.3749  -5.1678  -5.0377  -4.4051  -4.3554  -4.0680  -3.7492
    -1.5277   0.3348   0.5004   0.6428   0.7227   1.0337   1.1668   1.2328
     1.2445   1.4139   1.6226   1.6821   1.7556   1.9474   1.9637   2.0168
     2.0834   2.1243   2.2141   2.2337   2.3366   2.3603

          k = 0.5000 0.0962 0.0000 ( 59291 PWs)   bands (ev):

   -68.8611 -68.7960 -40.7662 -40.3336 -40.2340 -40.1952 -40.1833 -40.1439
   -21.1060 -20.9116 -20.7106 -20.1513 -19.7965 -19.4603 -19.3144 -19.1621
   -19.0073 -18.7717 -18.6232 -18.5422 -18.1285 -18.0973 -17.9113 -17.7153
   -12.3407 -12.1080 -12.0366 -11.9043 -11.6866 -11.6383 -11.5484 -10.9359
   -10.8813 -10.6152 -10.5192  -9.8515  -9.6876  -9.3301  -9.1040  -8.6339
    -8.6171  -8.5444  -8.3868  -8.3714  -8.1533  -8.0872  -8.0691  -8.0325
    -7.6784  -7.6175  -7.4869  -7.4693  -7.3293  -7.1653  -7.0621  -6.8398
    -6.6152  -6.3744  -6.1698  -6.1508  -5.9419  -5.9215  -5.7764  -5.7274
    -5.4460  -5.3789  -5.1666  -5.0377  -4.4023  -4.3583  -4.0683  -3.7491
    -1.5224   0.2762   0.5025   0.6415   0.7231   1.0386   1.1250   1.1951
     1.3324   1.5204   1.6560   1.6861   1.7314   1.8195   1.9802   2.0185
     2.1184   2.1837   2.2240   2.2622   2.3239   2.3832

          k =-0.3333 0.3849 0.0000 ( 59291 PWs)   bands (ev):

   -68.8611 -68.7960 -40.7662 -40.3336 -40.2340 -40.1952 -40.1833 -40.1439
   -21.1069 -20.9092 -20.7123 -20.1511 -19.7983 -19.4586 -19.3098 -19.1653
   -19.0100 -18.7700 -18.6244 -18.5416 -18.1306 -18.0947 -17.9114 -17.7155
   -12.3417 -12.1054 -12.0391 -11.9028 -11.6760 -11.6505 -11.5475 -10.9358
   -10.8813 -10.6147 -10.5196  -9.8519  -9.6876  -9.3299  -9.1050  -8.6361
    -8.6159  -8.5458  -8.3841  -8.3641  -8.1548  -8.0922  -8.0565  -8.0463
    -7.6786  -7.6161  -7.4932  -7.4633  -7.3285  -7.1652  -7.0627  -6.8452
    -6.6136  -6.3696  -6.1583  -6.1528  -5.9495  -5.9206  -5.7765  -5.7347
    -5.4457  -5.3749  -5.1678  -5.0377  -4.4051  -4.3554  -4.0680  -3.7492
    -1.5277   0.3348   0.5004   0.6428   0.7227   1.0337   1.1668   1.2328
     1.2445   1.4139   1.6226   1.6821   1.7556   1.9474   1.9638   2.0168
     2.0834   2.1243   2.2141   2.2336   2.3364   2.3603

          k =-0.1667-0.0962 0.0000 ( 59226 PWs)   bands (ev):

   -68.8611 -68.7960 -40.7662 -40.3336 -40.2340 -40.1952 -40.1832 -40.1439
   -21.3056 -20.5275 -20.3384 -20.3308 -19.9812 -19.9719 -19.7983 -18.7210
   -18.7137 -18.3668 -18.3585 -18.3484 -18.2613 -18.2527 -18.0701 -18.0633
   -12.5014 -12.4959 -12.4020 -11.5761 -11.5695 -11.4211 -11.4132 -10.9199
   -10.9172  -9.9220  -9.9208  -9.6691  -9.3696  -9.3648  -9.2229  -9.2218
    -9.0358  -9.0340  -8.9009  -8.3162  -8.3150  -7.8953  -7.8924  -7.8552
    -7.8369  -7.7642  -7.5889  -7.5659  -7.1086  -7.0733  -6.9529  -6.8821
    -6.8788  -6.8358  -6.5247  -6.5219  -6.2512  -5.3245  -5.2990  -5.1364
    -5.0587  -4.7860  -4.7777  -4.7367  -4.5967  -4.5867  -4.3347  -4.3158
    -1.5536   0.4958   0.5181   0.6255   0.7210   1.0691   1.1366   1.2853
     1.3770   1.5193   1.5807   1.6707   1.6855   1.7307   1.8283   1.9298
     2.0228   2.0699   2.1013   2.2633   2.2881   2.3756

          k =-0.0000-0.1925 0.0000 ( 59226 PWs)   bands (ev):

   -68.8611 -68.7960 -40.7661 -40.3336 -40.2340 -40.1952 -40.1833 -40.1439
   -21.3057 -20.5230 -20.3448 -20.3324 -19.9782 -19.9682 -19.8016 -18.7212
   -18.7103 -18.3866 -18.3583 -18.3459 -18.2491 -18.2465 -18.0739 -18.0639
   -12.5042 -12.4937 -12.4015 -11.5772 -11.5694 -11.4223 -11.4098 -10.9208
   -10.9179  -9.9237  -9.9192  -9.6692  -9.3715  -9.3617  -9.2238  -9.2217
    -9.0351  -9.0350  -8.9012  -8.3171  -8.3134  -7.8958  -7.8909  -7.8459
    -7.8337  -7.7657  -7.5987  -7.5785  -7.0880  -7.0762  -6.9515  -6.8835
    -6.8787  -6.8434  -6.5256  -6.5204  -6.2516  -5.3152  -5.3018  -5.1367
    -5.0583  -4.8242  -4.7680  -4.7329  -4.5848  -4.5743  -4.3351  -4.3215
    -1.5584   0.5056   0.6157   0.6217   0.7178   1.1089   1.1510   1.2048
     1.3024   1.5042   1.5259   1.5992   1.6685   1.7476   1.8644   1.9117
     2.0103   2.0652   2.1142   2.2504   2.3079   2.3497

          k = 0.5000-0.8660 0.0000 ( 59292 PWs)   bands (ev):

   -68.8611 -68.7960 -40.7662 -40.3336 -40.2340 -40.1951 -40.1833 -40.1439
   -21.0428 -21.0379 -20.4628 -20.4553 -19.4180 -19.4106 -19.4091 -19.3999
   -18.9838 -18.9816 -18.3172 -18.3131 -18.3084 -18.3044 -17.7859 -17.7799
   -12.0648 -12.0592 -12.0585 -12.0531 -11.8738 -11.8659 -11.3240 -11.3199
   -10.2282 -10.2257 -10.1287 -10.1254 -10.1227 -10.1201  -8.5648  -8.5412
    -8.5393  -8.5386  -8.5353  -8.5223  -7.8580  -7.8564  -7.8526  -7.8515
    -7.8154  -7.8138  -7.7608  -7.7362  -7.4834  -7.4807  -6.6047  -6.6011
    -6.3202  -6.3111  -6.2940  -6.2791  -6.1827  -6.1809  -5.6893  -5.6828
    -5.5384  -5.5360  -4.7034  -4.6993  -4.6861  -4.6706  -3.8685  -3.8517
    -1.5223   0.2743   0.5063   0.6390   0.7219   1.0466   1.1539   1.3158
     1.4846   1.5172   1.5936   1.6342   1.6712   1.7587   1.8700   1.9432
     1.9712   2.1406   2.2327   2.2731   2.3260   2.3850

          k =-1.0000 0.0000 0.0000 ( 59292 PWs)   bands (ev):

   -68.8611 -68.7960 -40.7662 -40.3336 -40.2340 -40.1952 -40.1832 -40.1438
   -21.0654 -21.0127 -20.4671 -20.4553 -19.4252 -19.4065 -19.4015 -19.3989
   -19.0034 -18.9636 -18.3610 -18.3219 -18.2855 -18.2753 -17.7887 -17.7785
   -12.0999 -12.0681 -12.0379 -12.0265 -11.8747 -11.8653 -11.3428 -11.3025
   -10.2381 -10.2295 -10.1251 -10.1251 -10.1184 -10.1164  -8.5967  -8.5687
    -8.5496  -8.5202  -8.5127  -8.4829  -7.8683  -7.8639  -7.8547  -7.8492
    -7.8067  -7.8065  -7.7628  -7.7457  -7.5064  -7.4596  -6.6055  -6.5980
    -6.3264  -6.3048  -6.2827  -6.2774  -6.2009  -6.1652  -5.7117  -5.6637
    -5.5582  -5.5163  -4.7815  -4.6928  -4.6562  -4.6328  -3.8673  -3.8537
    -1.5431   0.4989   0.5853   0.6522   0.7287   1.0529   1.1001   1.1700
     1.3820   1.4059   1.6061   1.6218   1.6450   1.6713   1.7142   1.7942
     2.0919   2.2271   2.2489   2.2907   2.2962   2.3809

     the Fermi energy is    -1.0941 ev

!    total energy              =   -1133.79809966 Ry

     total all-electron energy =     -6753.473803 Ry
     estimated scf accuracy    <       0.00000003 Ry
     smearing contrib. (-TS)   =      -0.00000000 Ry
     internal energy E=F+TS    =   -1133.79809966 Ry

     The total energy is F=E-TS. E is the sum of the following terms:
     one-electron contribution =   -3976.07316255 Ry
     hartree contribution      =    2016.14526506 Ry
     xc contribution           =    -186.07401324 Ry
     ewald contribution        =    1371.57832484 Ry
     DFT-D3 Dispersion         =      -0.12283175 Ry
     one-center paw contrib.   =    -359.25168202 Ry

     total magnetization       =    10.00 Bohr mag/cell
     absolute magnetization    =    10.01 Bohr mag/cell

     convergence has been achieved in  14 iterations

     Writing output data file ./mytmp/Crdimer0.12-0.4.save/
 
     init_run     :     19.03s CPU     20.45s WALL (       1 calls)
     electrons    :    495.34s CPU    537.45s WALL (       1 calls)

     Called by init_run:
     wfcinit      :     13.82s CPU     14.73s WALL (       1 calls)
     potinit      :      1.80s CPU      1.85s WALL (       1 calls)
     hinit0       :      1.52s CPU      1.63s WALL (       1 calls)

     Called by electrons:
     c_bands      :    386.60s CPU    410.01s WALL (      14 calls)
     sum_band     :     78.42s CPU     89.72s WALL (      14 calls)
     v_of_rho     :      5.73s CPU      6.37s WALL (      15 calls)
     newd         :     16.68s CPU     23.54s WALL (      15 calls)
     PAW_pot      :      7.40s CPU      7.46s WALL (      15 calls)
     mix_rho      :      0.99s CPU      1.01s WALL (      14 calls)

     Called by c_bands:
     init_us_2    :      5.06s CPU      5.10s WALL (     870 calls)
     cegterg      :    374.25s CPU    397.57s WALL (     420 calls)

     Called by *egterg:
     cdiaghg      :     25.19s CPU     39.18s WALL (    2734 calls)
     h_psi        :    240.70s CPU    249.50s WALL (    2764 calls)
     s_psi        :     27.06s CPU     27.16s WALL (    2764 calls)
     g_psi        :      0.70s CPU      0.73s WALL (    2314 calls)

     Called by h_psi:
     h_psi:calbec :     27.90s CPU     28.58s WALL (    2764 calls)
     vloc_psi     :    183.34s CPU    191.30s WALL (    2764 calls)
     add_vuspsi   :     27.38s CPU     27.53s WALL (    2764 calls)

     General routines
     calbec       :     37.32s CPU     38.17s WALL (    3184 calls)
     fft          :      8.11s CPU     11.93s WALL (     369 calls)
     ffts         :      0.12s CPU      0.12s WALL (      58 calls)
     fftw         :    189.22s CPU    197.59s WALL (  247716 calls)
     interpolate  :      0.41s CPU      0.44s WALL (      30 calls)
 
     Parallel routines
     fft_scatt_xy :     30.50s CPU     31.65s WALL (  248143 calls)
     fft_scatt_yz :     77.65s CPU     85.06s WALL (  248143 calls)
 
     PWSCF        :   8m36.40s CPU   9m22.52s WALL

 
   This run was terminated on:  12:44:35  31Mar2021            

=------------------------------------------------------------------------------=
   JOB DONE.
=------------------------------------------------------------------------------=
