
     Program PWSCF v.6.7MaX starts on 31Mar2021 at 12: 7: 5 

     This program is part of the open-source Quantum ESPRESSO suite
     for quantum simulation of materials; please cite
         "P. Giannozzi et al., J. Phys.:Condens. Matter 21 395502 (2009);
         "P. Giannozzi et al., J. Phys.:Condens. Matter 29 465901 (2017);
          URL http://www.quantum-espresso.org", 
     in publications or presentations arising from this work. More details at
     http://www.quantum-espresso.org/quote

     Parallel version (MPI), running on    48 processors

     MPI processes distributed on     1 nodes
     R & G space division:  proc/nbgrp/npool/nimage =      48
     Reading input from Crdimer0.12-0.1.scf.in

     Current dimensions of program PWSCF are:
     Max number of different atomic species (ntypx) = 10
     Max number of k-points (npk) =  40000
     Max angular momentum in pseudopotentials (lmaxx) =  3
     file N.pbe-n-kjpaw_psl.1.0.0.UPF: wavefunction(s)  2S renormalized
     file Cr.pbe-spn-kjpaw_psl.1.0.0.UPF: wavefunction(s)  3S 3P 3D renormalized
     file Cr.pbe-spn-kjpaw_psl.1.0.0.UPF: wavefunction(s)  3S 3P 3D renormalized

     --------------------------------------------
     Parameters for DFT-D3 Dispersion Correction:
     --------------------------------------------
       Reference C6 values for interpolation: 

         atom   Coordination number   C6
         B          0.000           214.36
         B          0.971           150.74
         B          1.944           106.23
         B          2.913            62.89
         B          4.586            56.06
         N          0.000            50.54
         N          0.994            44.25
         N          2.014            39.35
         N          2.990            31.16
         Cr1        0.000          1381.48
         Cr1        1.827           571.38
         Cr1       10.619           306.69
         Cr2        0.000          1381.48
         Cr2        1.827           571.38
         Cr2       10.619           306.69

       Values used:

         atom   Coordination number  R0_AB[au]  C6      C8
         B          3.337            3.039     62.89   2505.97
         B          3.335            3.039     62.89   2506.00
         B          3.363            3.039     62.87   2505.28
         B          3.336            3.039     62.89   2506.00
         B          3.355            3.039     62.88   2505.51
         B          3.336            3.039     62.89   2505.98
         N          3.134            2.478     31.22    688.70
         N          3.134            2.478     31.22    688.70
         N          3.168            2.478     31.21    688.42
         N          3.136            2.478     31.22    688.68
         N          3.139            2.478     31.22    688.65
         N          3.134            2.478     31.22    688.70
         N          3.136            2.478     31.22    688.68
         N          3.134            2.478     31.22    688.70
         N          3.137            2.478     31.22    688.67
         B          3.336            3.039     62.89   2506.00
         B          3.335            3.039     62.89   2506.00
         B          3.336            3.039     62.89   2505.98
         B          3.355            3.039     62.88   2505.51
         B          3.337            3.039     62.89   2505.97
         B          3.336            3.039     62.89   2506.00
         N          3.136            2.478     31.22    688.68
         B          3.335            3.039     62.89   2506.01
         B          3.336            3.039     62.89   2505.99
         B          3.348            3.039     62.88   2505.70
         N          3.134            2.478     31.22    688.70
         N          3.134            2.478     31.22    688.70
         N          3.135            2.478     31.22    688.68
         N          3.135            2.478     31.22    688.68
         N          3.168            2.478     31.21    688.42
         N          3.136            2.478     31.22    688.68
         B          3.348            3.039     62.88   2505.70
         Cr1        1.071            3.252    626.13  57784.70
         Cr2        1.071            3.252    626.13  57784.70

         Molecular C6 ( Ry / a.u.^6 ) =     69136.92


     Subspace diagonalization in iterative solution of the eigenvalue problem:
     one sub-group per band group will be used
     scalapack distributed-memory algorithm (size of sub-group:  6*  6 procs)

 
     Parallelization info
     --------------------
     sticks:   dense  smooth     PW     G-vecs:    dense   smooth      PW
     Min         235      98     26                36277     9874    1408
     Max         236      99     27                36282     9883    1425
     Sum       11311    4741   1285              1741401   474235   68095
 


     bravais-lattice index     =            4
     lattice parameter (alat)  =      18.9275  a.u.
     unit-cell volume          =   10553.3021 (a.u.)^3
     number of atoms/cell      =           34
     number of atomic types    =            4
     number of electrons       =       156.00
     number of Kohn-Sham states=           94
     kinetic-energy cutoff     =      48.0000  Ry
     charge density cutoff     =     457.0000  Ry
     scf convergence threshold =      1.0E-07
     mixing beta               =       0.5000
     number of iterations used =            8  plain     mixing
     Exchange-correlation= SLA  PW   PBX  PBC
                           (   1   4   3   4   0   0   0)

     celldm(1)=  18.927497  celldm(2)=   0.000000  celldm(3)=   1.797125
     celldm(4)=   0.000000  celldm(5)=   0.000000  celldm(6)=   0.000000

     crystal axes: (cart. coord. in units of alat)
               a(1) = (   1.000000   0.000000   0.000000 )  
               a(2) = (  -0.500000   0.866025   0.000000 )  
               a(3) = (   0.000000   0.000000   1.797125 )  

     reciprocal axes: (cart. coord. in units 2 pi/alat)
               b(1) = (  1.000000  0.577350  0.000000 )  
               b(2) = (  0.000000  1.154701  0.000000 )  
               b(3) = (  0.000000  0.000000  0.556444 )  


     PseudoPot. # 1 for B  read from file:
     /home/sf05/q-e-qe-6.7MaX-Release/pseudo/B.pbe-n-kjpaw_psl.1.0.0.UPF
     MD5 check sum: d9c678ba5d3b2fd7b74e61139c9288d8
     Pseudo is Projector augmented-wave + core cor, Zval =  3.0
     Generated using "atomic" code by A. Dal Corso  v.5.1.2
     Shape of augmentation charge: PSQ
     Using radial grid of 1059 points,  4 beta functions with: 
                l(1) =   0
                l(2) =   0
                l(3) =   1
                l(4) =   1
     Q(r) pseudized with 0 coefficients 


     PseudoPot. # 2 for N  read from file:
     /home/sf05/q-e-qe-6.7MaX-Release/pseudo/N.pbe-n-kjpaw_psl.1.0.0.UPF
     MD5 check sum: e0e4e94a9c4025c5b51bd7d8793849bd
     Pseudo is Projector augmented-wave + core cor, Zval =  5.0
     Generated using "atomic" code by A. Dal Corso  v.5.1.2
     Shape of augmentation charge: PSQ
     Using radial grid of 1085 points,  4 beta functions with: 
                l(1) =   0
                l(2) =   0
                l(3) =   1
                l(4) =   1
     Q(r) pseudized with 0 coefficients 


     PseudoPot. # 3 for Cr read from file:
     /home/sf05/q-e-qe-6.7MaX-Release/pseudo/Cr.pbe-spn-kjpaw_psl.1.0.0.UPF
     MD5 check sum: 198f1a2427a48552563eee314eba32ba
     Pseudo is Projector augmented-wave + core cor, Zval = 14.0
     Generated using &quot;atomic&quot; code by A. Dal Corso  v.6.3
     Shape of augmentation charge: PSQ
     Using radial grid of 1183 points,  6 beta functions with: 
                l(1) =   0
                l(2) =   0
                l(3) =   1
                l(4) =   1
                l(5) =   2
                l(6) =   2
     Q(r) pseudized with 0 coefficients 


     PseudoPot. # 4 for Cr read from file:
     /home/sf05/q-e-qe-6.7MaX-Release/pseudo/Cr.pbe-spn-kjpaw_psl.1.0.0.UPF
     MD5 check sum: 198f1a2427a48552563eee314eba32ba
     Pseudo is Projector augmented-wave + core cor, Zval = 14.0
     Generated using &quot;atomic&quot; code by A. Dal Corso  v.6.3
     Shape of augmentation charge: PSQ
     Using radial grid of 1183 points,  6 beta functions with: 
                l(1) =   0
                l(2) =   0
                l(3) =   1
                l(4) =   1
                l(5) =   2
                l(6) =   2
     Q(r) pseudized with 0 coefficients 


     atomic species   valence    mass     pseudopotential
        B              3.00    10.81100     B ( 1.00)
        N              5.00    14.00674     N ( 1.00)
        Cr1           14.00    51.99610     Cr( 1.00)
        Cr2           14.00    51.99610     Cr( 1.00)

     Starting magnetic structure 
     atomic species   magnetization
        B            0.000
        N            0.000
        Cr1          1.000
        Cr2          1.000

     No symmetry found



   Cartesian axes

     site n.     atom                  positions (alat units)
         1           B   tau(   1) = (  -0.1250000   0.2165064   0.8985623  )
         2           B   tau(   2) = (   0.3750000   0.6495191   0.8985623  )
         3           B   tau(   3) = (   0.2500000   0.0000000   0.8985623  )
         4           B   tau(   4) = (   0.7500000   0.0000000   0.8985623  )
         5           B   tau(   5) = (   0.1250000   0.2165064   0.8985623  )
         6           B   tau(   6) = (  -0.3750000   0.6495191   0.8985623  )
         7           N   tau(   7) = (   0.7500005   0.2886748   0.8985623  )
         8           N   tau(   8) = (   0.3750005   0.5051812   0.8985623  )
         9           N   tau(   9) = (   0.3750005   0.0721685   0.8985623  )
        10           N   tau(  10) = (   0.6250005   0.0721685   0.8985623  )
        11           N   tau(  11) = (   0.2500005   0.2886748   0.8985623  )
        12           N   tau(  12) = (   0.6250005   0.5051812   0.8985623  )
        13           N   tau(  13) = (   0.0000005   0.2886748   0.8985623  )
        14           N   tau(  14) = (   0.2500005   0.7216875   0.8985623  )
        15           N   tau(  15) = (  -0.2499995   0.7216875   0.8985623  )
        16           B   tau(  16) = (   0.0000000   0.4330127   0.8985623  )
        17           B   tau(  17) = (   0.1250000   0.6495191   0.8985623  )
        18           B   tau(  18) = (  -0.1250000   0.6495191   0.8985623  )
        19           B   tau(  19) = (   0.3750000   0.2165064   0.8985623  )
        20           B   tau(  20) = (   0.6250000   0.2165064   0.8985623  )
        21           B   tau(  21) = (   0.5000000   0.4330127   0.8985623  )
        22           N   tau(  22) = (   0.5000005   0.2886748   0.8985623  )
        23           B   tau(  23) = (  -0.2500000   0.4330127   0.8985623  )
        24           B   tau(  24) = (   0.2500000   0.4330127   0.8985623  )
        25           B   tau(  25) = (   0.5000000   0.0000000   0.8985623  )
        26           N   tau(  26) = (  -0.1249995   0.5051812   0.8985623  )
        27           N   tau(  27) = (   0.1250005   0.5051812   0.8985623  )
        28           N   tau(  28) = (   0.0000005   0.7216875   0.8985623  )
        29           N   tau(  29) = (   0.5000005   0.7216875   0.8985623  )
        30           N   tau(  30) = (   0.1250005   0.0721685   0.8985623  )
        31           N   tau(  31) = (   0.8750005   0.0721685   0.8985623  )
        32           B   tau(  32) = (   0.0000000   0.0000000   0.8985623  )
        33           Cr1 tau(  33) = (   0.3700000   0.0866025   1.2040735  )
        34           Cr2 tau(  34) = (   0.1300000   0.0866025   1.2040735  )

     number of k points=    15  Gaussian smearing, width (Ry)=  0.0000
                       cart. coord. in units 2pi/alat
        k(    1) = (   0.1666667   0.2886751   0.0000000), wk =   0.0740741
        k(    2) = (   0.1666667  -0.4811252   0.0000000), wk =   0.0740741
        k(    3) = (   0.1666667  -0.0962250   0.0000000), wk =   0.0740741
        k(    4) = (  -0.5000000  -0.8660254   0.0000000), wk =   0.0370370
        k(    5) = (  -0.1666667   0.2886751   0.0000000), wk =   0.0740741
        k(    6) = (   0.3333333   0.0000000   0.0000000), wk =   0.0740741
        k(    7) = (  -0.1666667  -0.4811252   0.0000000), wk =   0.0740741
        k(    8) = (   0.5000000  -0.0962250   0.0000000), wk =   0.0740741
        k(    9) = (  -0.3333333  -0.3849002   0.0000000), wk =   0.0740741
        k(   10) = (   0.5000000   0.0962250   0.0000000), wk =   0.0740741
        k(   11) = (  -0.3333333   0.3849002   0.0000000), wk =   0.0740741
        k(   12) = (  -0.1666667  -0.0962250   0.0000000), wk =   0.0740741
        k(   13) = (  -0.0000000  -0.1924501   0.0000000), wk =   0.0740741
        k(   14) = (   0.5000000  -0.8660254   0.0000000), wk =   0.0370370
        k(   15) = (  -1.0000000   0.0000000   0.0000000), wk =   0.0370370

     Dense  grid:  1741401 G-vectors     FFT dimensions: ( 135, 135, 240)

     Smooth grid:   474235 G-vectors     FFT dimensions: (  90,  90, 160)

     Estimated max dynamical RAM per process >     218.62 MB

     Estimated total dynamical RAM >      10.25 GB
     Generating pointlists ...
     new r_m :   0.0595 (alat units)  1.1269 (a.u.) for type    1
     new r_m :   0.0595 (alat units)  1.1269 (a.u.) for type    2
     new r_m :   0.0990 (alat units)  1.8738 (a.u.) for type    3
     new r_m :   0.0990 (alat units)  1.8738 (a.u.) for type    4

     Initial potential from superposition of free atoms

     starting charge  155.99382, renormalised to  156.00000

     negative rho (up, down):  6.799E-03 4.655E-04
     Starting wfcs are  148 randomized atomic wfcs
     Checking if some PAW data can be deallocated... 

     total cpu time spent up to now is       19.7 secs

     Self-consistent Calculation

     iteration #  1     ecut=    48.00 Ry     beta= 0.50
     Davidson diagonalization with overlap
     ethr =  1.00E-02,  avg # of iterations =  2.9

     negative rho (up, down):  5.034E-03 2.898E-03

     total cpu time spent up to now is       60.3 secs

     total energy              =   -1130.68703161 Ry
     estimated scf accuracy    <      11.34796478 Ry

     total magnetization       =    12.00 Bohr mag/cell
     absolute magnetization    =    12.14 Bohr mag/cell

     iteration #  2     ecut=    48.00 Ry     beta= 0.50
     Davidson diagonalization with overlap
     ethr =  7.27E-03,  avg # of iterations =  2.7

     negative rho (up, down):  1.186E-02 1.040E-02

     total cpu time spent up to now is       97.6 secs

     total energy              =   -1132.39979363 Ry
     estimated scf accuracy    <       4.89822833 Ry

     total magnetization       =     8.89 Bohr mag/cell
     absolute magnetization    =     9.48 Bohr mag/cell

     iteration #  3     ecut=    48.00 Ry     beta= 0.50
     Davidson diagonalization with overlap
     ethr =  3.14E-03,  avg # of iterations =  6.7

     negative rho (up, down):  8.417E-03 8.409E-03

     total cpu time spent up to now is      138.8 secs

     total energy              =   -1133.44646037 Ry
     estimated scf accuracy    <       1.55652984 Ry

     total magnetization       =    10.00 Bohr mag/cell
     absolute magnetization    =    10.18 Bohr mag/cell

     iteration #  4     ecut=    48.00 Ry     beta= 0.50
     Davidson diagonalization with overlap
     ethr =  9.98E-04,  avg # of iterations =  5.1

     negative rho (up, down):  7.209E-03 5.686E-03

     total cpu time spent up to now is      172.6 secs

     total energy              =   -1133.77624937 Ry
     estimated scf accuracy    <       0.25450071 Ry

     total magnetization       =    10.00 Bohr mag/cell
     absolute magnetization    =    10.09 Bohr mag/cell

     iteration #  5     ecut=    48.00 Ry     beta= 0.50
     Davidson diagonalization with overlap
     ethr =  1.63E-04,  avg # of iterations = 10.9

     negative rho (up, down):  4.356E-03 4.695E-03

     total cpu time spent up to now is      213.7 secs

     total energy              =   -1133.77478583 Ry
     estimated scf accuracy    <       0.11215571 Ry

     total magnetization       =    10.00 Bohr mag/cell
     absolute magnetization    =    10.03 Bohr mag/cell

     iteration #  6     ecut=    48.00 Ry     beta= 0.50
     Davidson diagonalization with overlap
     ethr =  7.19E-05,  avg # of iterations =  5.9

     negative rho (up, down):  3.670E-03 4.107E-03

     total cpu time spent up to now is      252.5 secs

     total energy              =   -1133.78645148 Ry
     estimated scf accuracy    <       0.06354257 Ry

     total magnetization       =    10.00 Bohr mag/cell
     absolute magnetization    =    10.03 Bohr mag/cell

     iteration #  7     ecut=    48.00 Ry     beta= 0.50
     Davidson diagonalization with overlap
     ethr =  4.07E-05,  avg # of iterations =  5.8

     negative rho (up, down):  3.368E-03 3.913E-03

     total cpu time spent up to now is      289.0 secs

     total energy              =   -1133.79456801 Ry
     estimated scf accuracy    <       0.00757548 Ry

     total magnetization       =    10.00 Bohr mag/cell
     absolute magnetization    =    10.03 Bohr mag/cell

     iteration #  8     ecut=    48.00 Ry     beta= 0.50
     Davidson diagonalization with overlap
     c_bands:  1 eigenvalues not converged
     c_bands:  1 eigenvalues not converged
     c_bands:  1 eigenvalues not converged
     ethr =  4.86E-06,  avg # of iterations = 11.3

     negative rho (up, down):  3.259E-03 3.910E-03

     total cpu time spent up to now is      329.6 secs

     total energy              =   -1133.79592486 Ry
     estimated scf accuracy    <       0.00057406 Ry

     total magnetization       =    10.00 Bohr mag/cell
     absolute magnetization    =    10.02 Bohr mag/cell

     iteration #  9     ecut=    48.00 Ry     beta= 0.50
     Davidson diagonalization with overlap
     c_bands:  1 eigenvalues not converged
     ethr =  3.68E-07,  avg # of iterations =  4.9

     negative rho (up, down):  3.208E-03 3.906E-03

     total cpu time spent up to now is      366.8 secs

     total energy              =   -1133.79607829 Ry
     estimated scf accuracy    <       0.00008076 Ry

     total magnetization       =    10.00 Bohr mag/cell
     absolute magnetization    =    10.01 Bohr mag/cell

     iteration # 10     ecut=    48.00 Ry     beta= 0.50
     Davidson diagonalization with overlap
     ethr =  5.18E-08,  avg # of iterations =  3.3

     negative rho (up, down):  3.187E-03 3.915E-03

     total cpu time spent up to now is      399.2 secs

     total energy              =   -1133.79610834 Ry
     estimated scf accuracy    <       0.00002194 Ry

     total magnetization       =    10.00 Bohr mag/cell
     absolute magnetization    =    10.01 Bohr mag/cell

     iteration # 11     ecut=    48.00 Ry     beta= 0.50
     Davidson diagonalization with overlap
     ethr =  1.41E-08,  avg # of iterations =  3.6

     negative rho (up, down):  3.179E-03 3.923E-03

     total cpu time spent up to now is      436.3 secs

     total energy              =   -1133.79612094 Ry
     estimated scf accuracy    <       0.00000798 Ry

     total magnetization       =    10.00 Bohr mag/cell
     absolute magnetization    =    10.01 Bohr mag/cell

     iteration # 12     ecut=    48.00 Ry     beta= 0.50
     Davidson diagonalization with overlap
     ethr =  5.11E-09,  avg # of iterations =  3.2

     negative rho (up, down):  3.176E-03 3.931E-03

     total cpu time spent up to now is      467.5 secs

     total energy              =   -1133.79612566 Ry
     estimated scf accuracy    <       0.00000157 Ry

     total magnetization       =    10.00 Bohr mag/cell
     absolute magnetization    =    10.01 Bohr mag/cell

     iteration # 13     ecut=    48.00 Ry     beta= 0.50
     Davidson diagonalization with overlap
     ethr =  1.00E-09,  avg # of iterations =  4.5

     negative rho (up, down):  3.174E-03 3.934E-03

     total cpu time spent up to now is      502.5 secs

     total energy              =   -1133.79612773 Ry
     estimated scf accuracy    <       0.00000031 Ry

     total magnetization       =    10.00 Bohr mag/cell
     absolute magnetization    =    10.01 Bohr mag/cell

     iteration # 14     ecut=    48.00 Ry     beta= 0.50
     Davidson diagonalization with overlap
     ethr =  2.00E-10,  avg # of iterations =  4.0

     negative rho (up, down):  3.174E-03 3.935E-03

     total cpu time spent up to now is      538.2 secs

     total energy              =   -1133.79612827 Ry
     estimated scf accuracy    <       0.00000016 Ry

     total magnetization       =    10.00 Bohr mag/cell
     absolute magnetization    =    10.01 Bohr mag/cell

     iteration # 15     ecut=    48.00 Ry     beta= 0.50
     Davidson diagonalization with overlap
     ethr =  1.01E-10,  avg # of iterations =  4.1

     negative rho (up, down):  3.173E-03 3.935E-03
 
     Magnetic moment per site:
     atom:    1    charge:    0.8806    magn:    0.0001    constr:    0.0000
     atom:    2    charge:    0.8804    magn:    0.0001    constr:    0.0000
     atom:    3    charge:    0.8794    magn:    0.0000    constr:    0.0000
     atom:    4    charge:    0.8806    magn:    0.0001    constr:    0.0000
     atom:    5    charge:    0.8802    magn:    0.0004    constr:    0.0000
     atom:    6    charge:    0.8801    magn:    0.0002    constr:    0.0000
     atom:    7    charge:    2.8610    magn:    0.0000    constr:    0.0000
     atom:    8    charge:    2.8609    magn:    0.0003    constr:    0.0000
     atom:    9    charge:    2.8614    magn:    0.0093    constr:    0.0000
     atom:   10    charge:    2.8609    magn:    0.0009    constr:    0.0000
     atom:   11    charge:    2.8605    magn:    0.0038    constr:    0.0000
     atom:   12    charge:    2.8610    magn:    0.0001    constr:    0.0000
     atom:   13    charge:    2.8599    magn:    0.0020    constr:    0.0000
     atom:   14    charge:    2.8599    magn:    0.0003    constr:    0.0000
     atom:   15    charge:    2.8596    magn:    0.0025    constr:    0.0000
     atom:   16    charge:    0.8800    magn:    0.0002    constr:    0.0000
     atom:   17    charge:    0.8801    magn:    0.0001    constr:    0.0000
     atom:   18    charge:    0.8798    magn:    0.0002    constr:    0.0000
     atom:   19    charge:    0.8796    magn:    0.0004    constr:    0.0000
     atom:   20    charge:    0.8800    magn:    0.0001    constr:    0.0000
     atom:   21    charge:    0.8797    magn:    0.0002    constr:    0.0000
     atom:   22    charge:    2.8611    magn:    0.0020    constr:    0.0000
     atom:   23    charge:    0.8799    magn:    0.0001    constr:    0.0000
     atom:   24    charge:    0.8798    magn:    0.0002    constr:    0.0000
     atom:   25    charge:    0.8804    magn:    0.0004    constr:    0.0000
     atom:   26    charge:    2.8598    magn:    0.0001    constr:    0.0000
     atom:   27    charge:    2.8598    magn:    0.0003    constr:    0.0000
     atom:   28    charge:    2.8596    magn:    0.0015    constr:    0.0000
     atom:   29    charge:    2.8594    magn:    0.0015    constr:    0.0000
     atom:   30    charge:    2.8601    magn:    0.0093    constr:    0.0000
     atom:   31    charge:    2.8596    magn:    0.0009    constr:    0.0000
     atom:   32    charge:    0.8807    magn:    0.0004    constr:    0.0000
     atom:   33    charge:   11.9898    magn:    3.8630    constr:    0.0000
     atom:   34    charge:   11.9898    magn:    3.8630    constr:    0.0000

     total cpu time spent up to now is      571.4 secs

     End of self-consistent calculation

 ------ SPIN UP ------------


          k = 0.1667 0.2887 0.0000 ( 59267 PWs)   bands (ev):

   -72.9972 -72.9375 -44.7319 -44.3790 -44.3382 -44.3377 -44.3336 -44.2920
   -21.2541 -20.6716 -20.6586 -20.1095 -20.1054 -19.5975 -19.5862 -19.1063
   -18.7095 -18.6947 -18.4614 -18.4599 -18.2023 -18.0926 -18.0824 -17.8561
   -12.4909 -12.2114 -12.2097 -11.8276 -11.8235 -11.6650 -11.2011 -11.1927
   -10.3982 -10.3745 -10.1262 -10.1190  -9.5970  -9.5934  -8.8474  -8.8319
    -8.8302  -8.7751  -8.7658  -8.6028  -8.2034  -8.0732  -8.0103  -7.8361
    -7.8337  -7.4466  -7.4421  -7.2854  -7.2718  -7.2161  -7.2117  -6.9648
    -6.9639  -6.5851  -6.5330  -6.1610  -6.1589  -5.8804  -5.4250  -5.3162
    -5.2753  -5.2067  -4.9147  -4.9123  -4.5167  -4.3629  -4.3433  -3.9865
    -3.3490  -2.5972  -2.5868  -2.2160  -1.8317  -1.7412  -1.4464  -1.4139
    -1.1857  -1.1781  -1.0890  -0.4492   0.5491   0.9273   1.0245   1.2173
     1.3021   1.4702   1.5298   1.5785   1.6214   1.7954

          k = 0.1667-0.4811 0.0000 ( 59291 PWs)   bands (ev):

   -72.9972 -72.9375 -44.7319 -44.3791 -44.3382 -44.3377 -44.3336 -44.2920
   -21.1244 -20.9182 -20.7297 -20.1680 -19.8114 -19.4730 -19.3246 -19.1814
   -19.0209 -18.7846 -18.6512 -18.5494 -18.1574 -18.0938 -17.9284 -17.7306
   -12.3553 -12.1203 -12.0507 -11.9123 -11.6877 -11.6643 -11.5588 -10.9483
   -10.8969 -10.6303 -10.5288  -9.8672  -9.6998  -9.3426  -9.1175  -8.6812
    -8.6299  -8.5598  -8.3952  -8.3749  -8.1678  -8.1276  -8.0704  -8.0557
    -7.6962  -7.6298  -7.5012  -7.4800  -7.3646  -7.1771  -7.0742  -6.8697
    -6.6288  -6.3963  -6.1904  -6.1645  -5.9774  -5.9357  -5.7903  -5.7531
    -5.4577  -5.4018  -5.2244  -5.0456  -4.4564  -4.3503  -4.0957  -3.7749
    -3.3477  -2.5979  -2.5865  -2.2126  -1.8309  -1.7410  -1.4482  -1.4148
    -1.1866  -1.1782  -1.0895  -0.4527   0.4744   0.9535   1.0644   1.0899
     1.2115   1.2819   1.4272   1.8397   1.9156   2.1208

          k = 0.1667-0.0962 0.0000 ( 59226 PWs)   bands (ev):

   -72.9972 -72.9375 -44.7319 -44.3790 -44.3382 -44.3376 -44.3336 -44.2920
   -21.3205 -20.5436 -20.3554 -20.3417 -20.0006 -19.9829 -19.8117 -18.7427
   -18.7244 -18.3848 -18.3768 -18.3589 -18.2719 -18.2705 -18.0856 -18.0749
   -12.5122 -12.5106 -12.4144 -11.5903 -11.5801 -11.4304 -11.4294 -10.9336
   -10.9289  -9.9375  -9.9311  -9.6824  -9.3814  -9.3792  -9.2370  -9.2335
    -9.0486  -9.0467  -8.9338  -8.3316  -8.3264  -7.9085  -7.9062  -7.8932
    -7.8515  -7.7769  -7.6222  -7.5821  -7.1540  -7.0890  -6.9662  -6.8963
    -6.8902  -6.8557  -6.5397  -6.5329  -6.2641  -5.3754  -5.3141  -5.1499
    -5.0719  -4.8272  -4.8111  -4.7520  -4.6167  -4.6117  -4.3636  -4.3314
    -3.3505  -2.5966  -2.5872  -2.2194  -1.8336  -1.7413  -1.4449  -1.4131
    -1.1844  -1.1786  -1.0885  -0.4452   0.6274   0.8915   0.9910   1.2224
     1.2782   1.3597   1.5823   1.5941   1.7507   1.9729

          k =-0.5000-0.8660 0.0000 ( 59292 PWs)   bands (ev):

   -72.9972 -72.9375 -44.7319 -44.3791 -44.3382 -44.3376 -44.3336 -44.2920
   -21.0623 -21.0485 -20.4804 -20.4662 -19.4378 -19.4331 -19.4146 -19.4130
   -19.0025 -18.9920 -18.3348 -18.3324 -18.3181 -18.3176 -17.8039 -17.7911
   -12.0790 -12.0770 -12.0658 -12.0649 -11.8883 -11.8758 -11.3386 -11.3305
   -10.2452 -10.2353 -10.1428 -10.1409 -10.1324 -10.1318  -8.6149  -8.5584
    -8.5558  -8.5474  -8.5461  -8.5379  -7.8743  -7.8726  -7.8627  -7.8624
    -7.8303  -7.8245  -7.7969  -7.7523  -7.4987  -7.4906  -6.6219  -6.6109
    -6.3743  -6.3583  -6.2985  -6.2958  -6.1981  -6.1921  -5.7253  -5.6971
    -5.5548  -5.5459  -4.7465  -4.7417  -4.6937  -4.6846  -3.9028  -3.8664
    -3.3429  -2.5970  -2.5863  -2.2129  -1.8317  -1.7411  -1.4461  -1.4152
    -1.1936  -1.1816  -1.0939  -0.5593   0.6047   1.0365   1.0946   1.1196
     1.3862   1.5741   1.5914   1.6180   1.7696   1.8721

          k =-0.1667 0.2887 0.0000 ( 59267 PWs)   bands (ev):

   -72.9972 -72.9375 -44.7319 -44.3790 -44.3382 -44.3377 -44.3336 -44.2920
   -21.2541 -20.6715 -20.6587 -20.1095 -20.1054 -19.5975 -19.5862 -19.1064
   -18.7094 -18.6947 -18.4614 -18.4599 -18.2022 -18.0926 -18.0824 -17.8562
   -12.4909 -12.2114 -12.2097 -11.8276 -11.8235 -11.6650 -11.2010 -11.1928
   -10.3982 -10.3745 -10.1262 -10.1191  -9.5970  -9.5934  -8.8474  -8.8319
    -8.8301  -8.7751  -8.7659  -8.6027  -8.2035  -8.0732  -8.0103  -7.8361
    -7.8337  -7.4466  -7.4421  -7.2854  -7.2718  -7.2161  -7.2117  -6.9649
    -6.9640  -6.5851  -6.5330  -6.1610  -6.1589  -5.8804  -5.4251  -5.3162
    -5.2753  -5.2066  -4.9147  -4.9122  -4.5167  -4.3629  -4.3433  -3.9865
    -3.3490  -2.5972  -2.5868  -2.2160  -1.8317  -1.7412  -1.4464  -1.4139
    -1.1857  -1.1781  -1.0890  -0.4492   0.5491   0.9273   1.0245   1.2173
     1.3021   1.4702   1.5298   1.5785   1.6214   1.7954

          k = 0.3333 0.0000 0.0000 ( 59267 PWs)   bands (ev):

   -72.9972 -72.9375 -44.7319 -44.3790 -44.3382 -44.3376 -44.3336 -44.2921
   -21.2536 -20.6956 -20.6344 -20.1192 -20.0935 -19.6234 -19.5629 -19.1092
   -18.7238 -18.6737 -18.4744 -18.4488 -18.1977 -18.1171 -18.0659 -17.8550
   -12.4897 -12.2197 -12.2020 -11.8375 -11.8166 -11.6626 -11.2176 -11.1764
   -10.3980 -10.3734 -10.1388 -10.1074  -9.6023  -9.5863  -8.8473  -8.8378
    -8.8208  -8.7975  -8.7455  -8.6041  -8.2057  -8.1146  -7.9683  -7.8366
    -7.8307  -7.4517  -7.4362  -7.3101  -7.2406  -7.2254  -7.2021  -6.9758
    -6.9548  -6.6305  -6.4960  -6.1637  -6.1552  -5.8891  -5.4249  -5.3278
    -5.2484  -5.2071  -4.9443  -4.8850  -4.5107  -4.3966  -4.3234  -3.9841
    -3.3459  -2.5967  -2.5860  -2.2162  -1.8334  -1.7411  -1.4449  -1.4142
    -1.1899  -1.1807  -1.0919  -0.5235   0.6283   1.0230   1.1119   1.2263
     1.3187   1.4767   1.5339   1.5752   1.5799   1.8906

          k =-0.1667-0.4811 0.0000 ( 59291 PWs)   bands (ev):

   -72.9972 -72.9375 -44.7319 -44.3791 -44.3382 -44.3377 -44.3336 -44.2920
   -21.1244 -20.9182 -20.7297 -20.1680 -19.8114 -19.4730 -19.3246 -19.1814
   -19.0209 -18.7846 -18.6512 -18.5494 -18.1574 -18.0938 -17.9284 -17.7306
   -12.3553 -12.1203 -12.0507 -11.9123 -11.6877 -11.6642 -11.5589 -10.9483
   -10.8970 -10.6303 -10.5288  -9.8671  -9.6998  -9.3426  -9.1175  -8.6812
    -8.6298  -8.5598  -8.3951  -8.3749  -8.1678  -8.1276  -8.0705  -8.0557
    -7.6962  -7.6298  -7.5012  -7.4800  -7.3646  -7.1771  -7.0742  -6.8697
    -6.6288  -6.3963  -6.1904  -6.1646  -5.9774  -5.9356  -5.7903  -5.7531
    -5.4577  -5.4018  -5.2244  -5.0456  -4.4564  -4.3503  -4.0957  -3.7749
    -3.3477  -2.5979  -2.5865  -2.2126  -1.8309  -1.7410  -1.4482  -1.4148
    -1.1866  -1.1782  -1.0895  -0.4527   0.4744   0.9535   1.0644   1.0899
     1.2115   1.2818   1.4272   1.8397   1.9156   2.1205

          k = 0.5000-0.0962 0.0000 ( 59291 PWs)   bands (ev):

   -72.9972 -72.9376 -44.7319 -44.3790 -44.3382 -44.3376 -44.3336 -44.2921
   -21.1211 -20.9272 -20.7240 -20.1659 -19.8108 -19.4765 -19.3306 -19.1754
   -19.0227 -18.7870 -18.6374 -18.5564 -18.1446 -18.1123 -17.9251 -17.7299
   -12.3532 -12.1212 -12.0486 -11.9174 -11.7007 -11.6487 -11.5611 -10.9489
   -10.8942 -10.6281 -10.5319  -9.8645  -9.7003  -9.3435  -9.1168  -8.6705
    -8.6308  -8.5576  -8.4062  -8.3994  -8.1656  -8.1087  -8.0848  -8.0427
    -7.6912  -7.6304  -7.5003  -7.4813  -7.3581  -7.1789  -7.0750  -6.8668
    -6.6293  -6.4103  -6.2038  -6.1637  -5.9620  -5.9349  -5.7894  -5.7575
    -5.4592  -5.4067  -5.1939  -5.0601  -4.4367  -4.3796  -4.0912  -3.7733
    -3.3429  -2.5970  -2.5863  -2.2129  -1.8323  -1.7410  -1.4462  -1.4152
    -1.1935  -1.1816  -1.0939  -0.5588   0.5922   1.0319   1.0913   1.1531
     1.2588   1.3096   1.6191   1.7738   1.9388   1.9586

          k =-0.3333-0.3849 0.0000 ( 59291 PWs)   bands (ev):

   -72.9972 -72.9375 -44.7318 -44.3791 -44.3382 -44.3376 -44.3336 -44.2921
   -21.1223 -20.9240 -20.7262 -20.1655 -19.8138 -19.4735 -19.3243 -19.1804
   -19.0260 -18.7844 -18.6392 -18.5559 -18.1473 -18.1087 -17.9254 -17.7302
   -12.3545 -12.1180 -12.0516 -11.9155 -11.6889 -11.6624 -11.5602 -10.9488
   -10.8940 -10.6275 -10.5325  -9.8652  -9.7004  -9.3430  -9.1182  -8.6742
    -8.6290  -8.5594  -8.3971  -8.3940  -8.1673  -8.1162  -8.0707  -8.0584
    -7.6914  -7.6289  -7.5076  -7.4744  -7.3558  -7.1789  -7.0759  -6.8777
    -6.6269  -6.3991  -6.1867  -6.1664  -5.9771  -5.9336  -5.7898  -5.7666
    -5.4589  -5.3992  -5.1962  -5.0613  -4.4388  -4.3761  -4.0909  -3.7738
    -3.3445  -2.5972  -2.5867  -2.2128  -1.8314  -1.7411  -1.4469  -1.4150
    -1.1912  -1.1804  -1.0923  -0.5267   0.5558   1.0127   1.0860   1.1084
     1.2232   1.3614   1.5225   1.8418   1.9041   1.9680

          k = 0.5000 0.0962 0.0000 ( 59291 PWs)   bands (ev):

   -72.9972 -72.9376 -44.7319 -44.3790 -44.3382 -44.3376 -44.3336 -44.2921
   -21.1211 -20.9272 -20.7240 -20.1659 -19.8108 -19.4765 -19.3306 -19.1754
   -19.0227 -18.7870 -18.6374 -18.5564 -18.1446 -18.1123 -17.9251 -17.7299
   -12.3532 -12.1212 -12.0486 -11.9175 -11.7007 -11.6487 -11.5611 -10.9488
   -10.8942 -10.6281 -10.5319  -9.8645  -9.7003  -9.3435  -9.1168  -8.6705
    -8.6308  -8.5576  -8.4062  -8.3994  -8.1656  -8.1087  -8.0848  -8.0427
    -7.6912  -7.6304  -7.5004  -7.4813  -7.3581  -7.1790  -7.0750  -6.8668
    -6.6292  -6.4103  -6.2038  -6.1636  -5.9620  -5.9348  -5.7895  -5.7575
    -5.4592  -5.4067  -5.1939  -5.0601  -4.4367  -4.3796  -4.0912  -3.7733
    -3.3429  -2.5970  -2.5863  -2.2129  -1.8323  -1.7410  -1.4462  -1.4152
    -1.1935  -1.1816  -1.0939  -0.5588   0.5922   1.0319   1.0913   1.1532
     1.2588   1.3096   1.6191   1.7738   1.9387   1.9586

          k =-0.3333 0.3849 0.0000 ( 59291 PWs)   bands (ev):

   -72.9972 -72.9375 -44.7318 -44.3791 -44.3382 -44.3376 -44.3336 -44.2921
   -21.1223 -20.9240 -20.7262 -20.1654 -19.8138 -19.4735 -19.3243 -19.1804
   -19.0260 -18.7844 -18.6392 -18.5559 -18.1473 -18.1087 -17.9254 -17.7302
   -12.3545 -12.1180 -12.0516 -11.9155 -11.6889 -11.6624 -11.5602 -10.9488
   -10.8940 -10.6275 -10.5325  -9.8652  -9.7004  -9.3430  -9.1182  -8.6742
    -8.6290  -8.5594  -8.3971  -8.3940  -8.1673  -8.1162  -8.0707  -8.0584
    -7.6914  -7.6289  -7.5076  -7.4744  -7.3558  -7.1789  -7.0760  -6.8777
    -6.6269  -6.3991  -6.1867  -6.1665  -5.9771  -5.9336  -5.7897  -5.7666
    -5.4588  -5.3992  -5.1962  -5.0613  -4.4388  -4.3761  -4.0909  -3.7738
    -3.3445  -2.5972  -2.5867  -2.2128  -1.8314  -1.7411  -1.4469  -1.4150
    -1.1912  -1.1804  -1.0923  -0.5267   0.5558   1.0127   1.0860   1.1084
     1.2232   1.3615   1.5225   1.8418   1.9041   1.9679

          k =-0.1667-0.0962 0.0000 ( 59226 PWs)   bands (ev):

   -72.9972 -72.9375 -44.7319 -44.3790 -44.3382 -44.3376 -44.3336 -44.2920
   -21.3205 -20.5436 -20.3554 -20.3417 -20.0006 -19.9829 -19.8117 -18.7427
   -18.7244 -18.3848 -18.3768 -18.3589 -18.2719 -18.2705 -18.0856 -18.0749
   -12.5122 -12.5106 -12.4144 -11.5903 -11.5801 -11.4304 -11.4294 -10.9336
   -10.9289  -9.9375  -9.9311  -9.6824  -9.3813  -9.3792  -9.2370  -9.2335
    -9.0486  -9.0468  -8.9338  -8.3316  -8.3265  -7.9085  -7.9062  -7.8932
    -7.8514  -7.7769  -7.6221  -7.5821  -7.1540  -7.0890  -6.9663  -6.8963
    -6.8901  -6.8557  -6.5396  -6.5329  -6.2642  -5.3754  -5.3141  -5.1498
    -5.0720  -4.8272  -4.8111  -4.7521  -4.6167  -4.6117  -4.3636  -4.3314
    -3.3505  -2.5966  -2.5872  -2.2194  -1.8336  -1.7413  -1.4449  -1.4131
    -1.1844  -1.1786  -1.0885  -0.4452   0.6274   0.8915   0.9910   1.2223
     1.2782   1.3598   1.5824   1.5941   1.7507   1.9746

          k =-0.0000-0.1925 0.0000 ( 59226 PWs)   bands (ev):

   -72.9972 -72.9375 -44.7318 -44.3790 -44.3382 -44.3376 -44.3336 -44.2920
   -21.3206 -20.5379 -20.3576 -20.3500 -19.9907 -19.9842 -19.8156 -18.7350
   -18.7275 -18.4142 -18.3674 -18.3601 -18.2609 -18.2591 -18.0858 -18.0805
   -12.5202 -12.5028 -12.4142 -11.5883 -11.5834 -11.4383 -11.4185 -10.9334
   -10.9312  -9.9349  -9.9338  -9.6823  -9.3869  -9.3723  -9.2367  -9.2358
    -9.0478  -9.0470  -8.9344  -8.3296  -8.3278  -7.9090  -7.9027  -7.8760
    -7.8519  -7.7790  -7.6293  -7.6090  -7.1118  -7.1050  -6.9647  -6.8953
    -6.8928  -6.8657  -6.5374  -6.5345  -6.2647  -5.3469  -5.3335  -5.1502
    -5.0716  -4.8800  -4.7853  -4.7595  -4.6039  -4.5890  -4.3540  -4.3508
    -3.3520  -2.5969  -2.5876  -2.2193  -1.8327  -1.7414  -1.4457  -1.4130
    -1.1826  -1.1771  -1.0872  -0.4011   0.5789   0.8270   0.9774   1.1820
     1.2724   1.4005   1.5731   1.6144   1.6972   1.9991

          k = 0.5000-0.8660 0.0000 ( 59292 PWs)   bands (ev):

   -72.9972 -72.9375 -44.7319 -44.3791 -44.3382 -44.3376 -44.3336 -44.2920
   -21.0623 -21.0485 -20.4804 -20.4662 -19.4378 -19.4331 -19.4146 -19.4130
   -19.0025 -18.9921 -18.3348 -18.3323 -18.3181 -18.3176 -17.8039 -17.7911
   -12.0790 -12.0769 -12.0658 -12.0650 -11.8883 -11.8758 -11.3386 -11.3305
   -10.2452 -10.2353 -10.1428 -10.1409 -10.1324 -10.1318  -8.6149  -8.5583
    -8.5557  -8.5475  -8.5462  -8.5379  -7.8743  -7.8725  -7.8627  -7.8624
    -7.8304  -7.8246  -7.7968  -7.7523  -7.4988  -7.4907  -6.6218  -6.6108
    -6.3743  -6.3583  -6.2985  -6.2958  -6.1980  -6.1921  -5.7253  -5.6972
    -5.5548  -5.5460  -4.7464  -4.7417  -4.6936  -4.6846  -3.9028  -3.8664
    -3.3429  -2.5970  -2.5863  -2.2129  -1.8317  -1.7411  -1.4461  -1.4152
    -1.1936  -1.1816  -1.0939  -0.5593   0.6046   1.0365   1.0946   1.1197
     1.3863   1.5741   1.5913   1.6180   1.7696   1.8717

          k =-1.0000 0.0000 0.0000 ( 59292 PWs)   bands (ev):

   -72.9972 -72.9375 -44.7319 -44.3791 -44.3383 -44.3376 -44.3336 -44.2920
   -21.0846 -21.0229 -20.4798 -20.4724 -19.4372 -19.4345 -19.4152 -19.4046
   -19.0220 -18.9735 -18.3951 -18.3167 -18.3101 -18.2825 -17.8013 -17.7958
   -12.1222 -12.0734 -12.0516 -12.0356 -11.8850 -11.8793 -11.3579 -11.3132
   -10.2492 -10.2478 -10.1364 -10.1363 -10.1308 -10.1305  -8.6477  -8.5900
    -8.5566  -8.5362  -8.5198  -8.4942  -7.8825  -7.8765  -7.8677  -7.8659
    -7.8185  -7.8182  -7.7904  -7.7763  -7.5226  -7.4692  -6.6166  -6.6130
    -6.3634  -6.3604  -6.2990  -6.2846  -6.2172  -6.1761  -5.7488  -5.6768
    -5.5751  -5.5258  -4.8495  -4.7015  -4.6793  -4.6417  -3.8887  -3.8839
    -3.3492  -2.5982  -2.5859  -2.2126  -1.8307  -1.7409  -1.4486  -1.4147
    -1.1845  -1.1770  -1.0882  -0.4100   0.4403   0.9095   1.0544   1.1029
     1.1441   1.5285   1.5972   1.6193   1.6333   1.9055

 ------ SPIN DOWN ----------


          k = 0.1667 0.2887 0.0000 ( 59267 PWs)   bands (ev):

   -68.8469 -68.7818 -40.7470 -40.3137 -40.2370 -40.1863 -40.1702 -40.1194
   -21.2500 -20.6661 -20.6563 -20.1052 -20.1017 -19.5920 -19.5839 -19.1022
   -18.7025 -18.6922 -18.4573 -18.4559 -18.1970 -18.0879 -18.0801 -17.8520
   -12.4886 -12.2090 -12.2072 -11.8250 -11.8217 -11.6629 -11.1979 -11.1910
   -10.3954 -10.3720 -10.1224 -10.1173  -9.5941  -9.5913  -8.8302  -8.8283
    -8.8232  -8.7717  -8.7644  -8.6004  -8.2011  -8.0453  -8.0023  -7.8334
    -7.8313  -7.4427  -7.4396  -7.2658  -7.2562  -7.2130  -7.2099  -6.9624
    -6.9615  -6.5609  -6.5262  -6.1580  -6.1566  -5.8626  -5.4219  -5.2881
    -5.2636  -5.2039  -4.9003  -4.8978  -4.4975  -4.3480  -4.3343  -3.9719
    -1.5411   0.4831   0.5156   0.5981   0.6718   1.1273   1.2095   1.2432
     1.3657   1.4528   1.5344   1.5888   1.6385   1.6818   1.8428   1.9249
     2.0824   2.1061   2.1739   2.2446   2.3589   2.4187

          k = 0.1667-0.4811 0.0000 ( 59291 PWs)   bands (ev):

   -68.8469 -68.7818 -40.7470 -40.3137 -40.2370 -40.1863 -40.1702 -40.1194
   -21.1199 -20.9149 -20.7258 -20.1639 -19.8074 -19.4690 -19.3204 -19.1773
   -19.0168 -18.7809 -18.6453 -18.5463 -18.1513 -18.0915 -17.9243 -17.7262
   -12.3529 -12.1179 -12.0485 -11.9101 -11.6853 -11.6620 -11.5566 -10.9456
   -10.8942 -10.6276 -10.5265  -9.8641  -9.6974  -9.3397  -9.1150  -8.6545
    -8.6272  -8.5568  -8.3928  -8.3619  -8.1654  -8.1110  -8.0676  -8.0538
    -7.6932  -7.6273  -7.4985  -7.4780  -7.3457  -7.1741  -7.0717  -6.8522
    -6.6255  -6.3798  -6.1707  -6.1619  -5.9625  -5.9325  -5.7875  -5.7366
    -5.4551  -5.3876  -5.1984  -5.0366  -4.4334  -4.3440  -4.0814  -3.7604
    -1.5335   0.4839   0.5034   0.5904   0.6942   1.0273   1.1114   1.1998
     1.2687   1.3451   1.6244   1.6374   1.6987   1.8248   1.8963   2.1078
     2.1344   2.1733   2.2129   2.2679   2.3129   2.3964

          k = 0.1667-0.0962 0.0000 ( 59226 PWs)   bands (ev):

   -68.8469 -68.7818 -40.7470 -40.3137 -40.2370 -40.1863 -40.1702 -40.1194
   -21.3164 -20.5390 -20.3514 -20.3387 -19.9953 -19.9797 -19.8084 -18.7366
   -18.7209 -18.3786 -18.3724 -18.3558 -18.2678 -18.2666 -18.0817 -18.0717
   -12.5099 -12.5083 -12.4121 -11.5877 -11.5784 -11.4280 -11.4269 -10.9309
   -10.9267  -9.9345  -9.9291  -9.6796  -9.3787  -9.3768  -9.2339  -9.2309
    -9.0460  -9.0446  -8.9131  -8.3282  -8.3236  -7.9056  -7.9037  -7.8680
    -7.8479  -7.7745  -7.6039  -7.5724  -7.1256  -7.0796  -6.9634  -6.8935
    -6.8881  -6.8454  -6.5367  -6.5307  -6.2615  -5.3451  -5.3035  -5.1469
    -5.0691  -4.8021  -4.7922  -4.7417  -4.6034  -4.6001  -4.3471  -4.3225
    -1.5487   0.4838   0.5268   0.6000   0.6570   1.0409   1.1688   1.2523
     1.4337   1.5193   1.5844   1.6726   1.7031   1.7270   1.8308   1.9446
     2.0151   2.0674   2.1023   2.2604   2.2953   2.4166

          k =-0.5000-0.8660 0.0000 ( 59292 PWs)   bands (ev):

   -68.8469 -68.7818 -40.7470 -40.3137 -40.2370 -40.1863 -40.1702 -40.1194
   -21.0564 -21.0462 -20.4761 -20.4632 -19.4316 -19.4279 -19.4119 -19.4101
   -18.9967 -18.9900 -18.3279 -18.3254 -18.3166 -18.3158 -17.7990 -17.7876
   -12.0755 -12.0733 -12.0645 -12.0637 -11.8857 -11.8743 -11.3355 -11.3287
   -10.2418 -10.2334 -10.1394 -10.1382 -10.1301 -10.1296  -8.5811  -8.5542
    -8.5521  -8.5460  -8.5449  -8.5302  -7.8708  -7.8695  -7.8606  -7.8604
    -7.8271  -7.8212  -7.7768  -7.7425  -7.4954  -7.4893  -6.6183  -6.6089
    -6.3421  -6.3319  -6.2906  -6.2872  -6.1943  -6.1900  -5.7053  -5.6882
    -5.5507  -5.5444  -4.7188  -4.7164  -4.6868  -4.6814  -3.8841  -3.8570
    -1.5172   0.2744   0.5022   0.6068   0.6853   1.0520   1.1566   1.2698
     1.4748   1.5579   1.5795   1.6324   1.7143   1.7704   1.8515   1.9294
     2.0103   2.1602   2.2158   2.2536   2.3151   2.4288

          k =-0.1667 0.2887 0.0000 ( 59267 PWs)   bands (ev):

   -68.8469 -68.7818 -40.7470 -40.3137 -40.2370 -40.1863 -40.1702 -40.1194
   -21.2500 -20.6660 -20.6563 -20.1052 -20.1017 -19.5919 -19.5839 -19.1022
   -18.7024 -18.6922 -18.4573 -18.4559 -18.1970 -18.0878 -18.0801 -17.8520
   -12.4886 -12.2090 -12.2072 -11.8250 -11.8217 -11.6629 -11.1978 -11.1910
   -10.3954 -10.3720 -10.1225 -10.1173  -9.5941  -9.5913  -8.8302  -8.8282
    -8.8232  -8.7717  -8.7645  -8.6004  -8.2012  -8.0453  -8.0023  -7.8334
    -7.8313  -7.4427  -7.4396  -7.2658  -7.2562  -7.2129  -7.2099  -6.9624
    -6.9615  -6.5609  -6.5262  -6.1580  -6.1565  -5.8626  -5.4220  -5.2881
    -5.2637  -5.2039  -4.9003  -4.8978  -4.4975  -4.3480  -4.3343  -3.9719
    -1.5411   0.4831   0.5157   0.5981   0.6718   1.1273   1.2095   1.2432
     1.3657   1.4528   1.5344   1.5887   1.6385   1.6818   1.8428   1.9249
     2.0824   2.1062   2.1739   2.2447   2.3594   2.4188

          k = 0.3333 0.0000 0.0000 ( 59267 PWs)   bands (ev):

   -68.8469 -68.7818 -40.7470 -40.3137 -40.2370 -40.1863 -40.1702 -40.1194
   -21.2496 -20.6897 -20.6325 -20.1146 -20.0904 -19.6171 -19.5610 -19.1046
   -18.7172 -18.6718 -18.4694 -18.4453 -18.1930 -18.1110 -18.0639 -17.8510
   -12.4874 -12.2170 -12.1998 -11.8350 -11.8145 -11.6607 -11.2140 -11.1748
   -10.3953 -10.3710 -10.1351 -10.1056  -9.5994  -9.5844  -8.8344  -8.8285
    -8.8157  -8.7937  -8.7444  -8.6016  -8.2031  -8.0829  -7.9643  -7.8340
    -7.8286  -7.4478  -7.4338  -7.2855  -7.2319  -7.2220  -7.2005  -6.9727
    -6.9528  -6.6010  -6.4919  -6.1608  -6.1530  -5.8685  -5.4218  -5.3024
    -5.2392  -5.2043  -4.9234  -4.8763  -4.4919  -4.3773  -4.3155  -3.9704
    -1.5306   0.3455   0.5135   0.6029   0.6748   1.0201   1.2306   1.3887
     1.4590   1.5033   1.5330   1.6280   1.6962   1.7219   1.7693   1.9784
     2.0388   2.1269   2.1832   2.2909   2.3448   2.4202

          k =-0.1667-0.4811 0.0000 ( 59291 PWs)   bands (ev):

   -68.8469 -68.7818 -40.7470 -40.3137 -40.2370 -40.1863 -40.1702 -40.1194
   -21.1199 -20.9149 -20.7258 -20.1639 -19.8074 -19.4690 -19.3204 -19.1773
   -19.0168 -18.7809 -18.6453 -18.5462 -18.1513 -18.0915 -17.9243 -17.7262
   -12.3530 -12.1178 -12.0485 -11.9101 -11.6853 -11.6620 -11.5566 -10.9456
   -10.8942 -10.6276 -10.5265  -9.8641  -9.6974  -9.3397  -9.1150  -8.6545
    -8.6271  -8.5568  -8.3928  -8.3619  -8.1654  -8.1110  -8.0676  -8.0538
    -7.6932  -7.6274  -7.4984  -7.4780  -7.3457  -7.1741  -7.0717  -6.8522
    -6.6255  -6.3798  -6.1707  -6.1619  -5.9625  -5.9324  -5.7875  -5.7365
    -5.4552  -5.3876  -5.1984  -5.0367  -4.4333  -4.3440  -4.0814  -3.7604
    -1.5335   0.4839   0.5034   0.5904   0.6942   1.0273   1.1114   1.1998
     1.2687   1.3451   1.6244   1.6374   1.6987   1.8248   1.8963   2.1078
     2.1344   2.1733   2.2129   2.2679   2.3128   2.3962

          k = 0.5000-0.0962 0.0000 ( 59291 PWs)   bands (ev):

   -68.8469 -68.7818 -40.7470 -40.3137 -40.2370 -40.1863 -40.1702 -40.1194
   -21.1170 -20.9229 -20.7207 -20.1621 -19.8069 -19.4719 -19.3257 -19.1720
   -19.0183 -18.7828 -18.6334 -18.5524 -18.1396 -18.1081 -17.9214 -17.7257
   -12.3508 -12.1188 -12.0466 -11.9149 -11.6978 -11.6473 -11.5586 -10.9463
   -10.8916 -10.6256 -10.5294  -9.8618  -9.6978  -9.3405  -9.1144  -8.6467
    -8.6279  -8.5548  -8.3980  -8.3836  -8.1634  -8.0972  -8.0811  -8.0415
    -7.6888  -7.6279  -7.4976  -7.4792  -7.3410  -7.1757  -7.0725  -6.8504
    -6.6259  -6.3883  -6.1818  -6.1611  -5.9514  -5.9318  -5.7867  -5.7394
    -5.4564  -5.3907  -5.1770  -5.0473  -4.4157  -4.3682  -4.0782  -3.7595
    -1.5172   0.2764   0.5003   0.6030   0.6900   1.0376   1.0955   1.2125
     1.3472   1.5030   1.6581   1.6816   1.7431   1.8633   1.9893   2.0394
     2.1145   2.1665   2.1952   2.2395   2.3386   2.4088

          k =-0.3333-0.3849 0.0000 ( 59291 PWs)   bands (ev):

   -68.8469 -68.7818 -40.7470 -40.3137 -40.2370 -40.1863 -40.1702 -40.1194
   -21.1180 -20.9200 -20.7227 -20.1616 -19.8095 -19.4694 -19.3202 -19.1763
   -19.0213 -18.7805 -18.6349 -18.5520 -18.1420 -18.1050 -17.9216 -17.7259
   -12.3522 -12.1157 -12.0494 -11.9130 -11.6866 -11.6603 -11.5578 -10.9462
   -10.8915 -10.6250 -10.5298  -9.8622  -9.6979  -9.3402  -9.1156  -8.6493
    -8.6263  -8.5564  -8.3946  -8.3759  -8.1649  -8.1027  -8.0676  -8.0564
    -7.6890  -7.6265  -7.5043  -7.4729  -7.3396  -7.1757  -7.0733  -6.8577
    -6.6238  -6.3814  -6.1695  -6.1631  -5.9614  -5.9306  -5.7870  -5.7463
    -5.4562  -5.3857  -5.1784  -5.0480  -4.4179  -4.3651  -4.0780  -3.7598
    -1.5228   0.3365   0.4956   0.5997   0.6876   1.0318   1.1679   1.2289
     1.2607   1.4040   1.6169   1.7125   1.7452   1.9484   2.0133   2.0324
     2.0876   2.0985   2.1711   2.2164   2.3450   2.4100

          k = 0.5000 0.0962 0.0000 ( 59291 PWs)   bands (ev):

   -68.8469 -68.7818 -40.7470 -40.3137 -40.2370 -40.1863 -40.1702 -40.1194
   -21.1170 -20.9229 -20.7207 -20.1621 -19.8069 -19.4719 -19.3257 -19.1720
   -19.0183 -18.7828 -18.6334 -18.5524 -18.1396 -18.1081 -17.9214 -17.7257
   -12.3508 -12.1188 -12.0466 -11.9150 -11.6978 -11.6473 -11.5586 -10.9462
   -10.8916 -10.6256 -10.5294  -9.8618  -9.6979  -9.3405  -9.1143  -8.6467
    -8.6279  -8.5548  -8.3980  -8.3836  -8.1634  -8.0972  -8.0810  -8.0414
    -7.6888  -7.6279  -7.4976  -7.4792  -7.3410  -7.1758  -7.0724  -6.8504
    -6.6258  -6.3883  -6.1818  -6.1611  -5.9514  -5.9318  -5.7868  -5.7394
    -5.4565  -5.3908  -5.1770  -5.0472  -4.4157  -4.3682  -4.0782  -3.7595
    -1.5172   0.2764   0.5003   0.6030   0.6900   1.0377   1.0955   1.2126
     1.3472   1.5030   1.6581   1.6816   1.7431   1.8632   1.9893   2.0394
     2.1146   2.1664   2.1953   2.2397   2.3387   2.4090

          k =-0.3333 0.3849 0.0000 ( 59291 PWs)   bands (ev):

   -68.8469 -68.7818 -40.7470 -40.3137 -40.2370 -40.1863 -40.1702 -40.1194
   -21.1180 -20.9200 -20.7227 -20.1616 -19.8095 -19.4694 -19.3202 -19.1763
   -19.0213 -18.7805 -18.6349 -18.5520 -18.1420 -18.1050 -17.9216 -17.7259
   -12.3522 -12.1157 -12.0494 -11.9130 -11.6866 -11.6603 -11.5578 -10.9462
   -10.8915 -10.6250 -10.5298  -9.8623  -9.6979  -9.3402  -9.1156  -8.6493
    -8.6264  -8.5563  -8.3946  -8.3759  -8.1650  -8.1027  -8.0676  -8.0564
    -7.6889  -7.6265  -7.5043  -7.4728  -7.3396  -7.1757  -7.0733  -6.8577
    -6.6238  -6.3814  -6.1695  -6.1632  -5.9614  -5.9307  -5.7870  -5.7463
    -5.4561  -5.3857  -5.1785  -5.0480  -4.4180  -4.3651  -4.0780  -3.7598
    -1.5228   0.3366   0.4956   0.5997   0.6876   1.0317   1.1679   1.2289
     1.2607   1.4040   1.6170   1.7125   1.7453   1.9483   2.0133   2.0324
     2.0876   2.0985   2.1710   2.2164   2.3450   2.4102

          k =-0.1667-0.0962 0.0000 ( 59226 PWs)   bands (ev):

   -68.8469 -68.7818 -40.7470 -40.3137 -40.2370 -40.1863 -40.1702 -40.1194
   -21.3164 -20.5390 -20.3513 -20.3387 -19.9953 -19.9797 -19.8084 -18.7366
   -18.7209 -18.3786 -18.3724 -18.3558 -18.2678 -18.2666 -18.0817 -18.0717
   -12.5100 -12.5083 -12.4121 -11.5877 -11.5784 -11.4280 -11.4269 -10.9308
   -10.9267  -9.9346  -9.9292  -9.6795  -9.3787  -9.3768  -9.2340  -9.2309
    -9.0460  -9.0446  -8.9131  -8.3283  -8.3236  -7.9056  -7.9037  -7.8680
    -7.8478  -7.7746  -7.6039  -7.5724  -7.1256  -7.0796  -6.9635  -6.8935
    -6.8881  -6.8454  -6.5367  -6.5307  -6.2616  -5.3451  -5.3035  -5.1468
    -5.0692  -4.8021  -4.7922  -4.7417  -4.6034  -4.6001  -4.3471  -4.3225
    -1.5487   0.4837   0.5267   0.6000   0.6570   1.0409   1.1688   1.2524
     1.4337   1.5193   1.5844   1.6726   1.7032   1.7270   1.8309   1.9446
     2.0151   2.0674   2.1025   2.2607   2.2954   2.4271

          k =-0.0000-0.1925 0.0000 ( 59226 PWs)   bands (ev):

   -68.8469 -68.7818 -40.7470 -40.3137 -40.2370 -40.1863 -40.1702 -40.1194
   -21.3166 -20.5339 -20.3530 -20.3462 -19.9868 -19.9806 -19.8118 -18.7301
   -18.7234 -18.4057 -18.3636 -18.3561 -18.2590 -18.2556 -18.0819 -18.0765
   -12.5177 -12.5008 -12.4118 -11.5858 -11.5812 -11.4357 -11.4166 -10.9307
   -10.9287  -9.9327  -9.9312  -9.6794  -9.3837  -9.3704  -9.2338  -9.2329
    -9.0454  -9.0448  -8.9135  -8.3267  -8.3247  -7.9063  -7.9006  -7.8573
    -7.8461  -7.7763  -7.6079  -7.5929  -7.0972  -7.0888  -6.9621  -6.8927
    -6.8903  -6.8532  -6.5348  -6.5320  -6.2620  -5.3266  -5.3151  -5.1472
    -5.0687  -4.8448  -4.7730  -4.7447  -4.5964  -4.5802  -4.3417  -4.3350
    -1.5537   0.4885   0.5911   0.6387   0.6529   1.1150   1.1409   1.1555
     1.3781   1.5022   1.5311   1.6006   1.6579   1.7475   1.9042   1.9407
     2.0059   2.0845   2.1167   2.2237   2.3147   2.4020

          k = 0.5000-0.8660 0.0000 ( 59292 PWs)   bands (ev):

   -68.8469 -68.7818 -40.7470 -40.3137 -40.2370 -40.1863 -40.1702 -40.1194
   -21.0564 -21.0462 -20.4761 -20.4632 -19.4316 -19.4279 -19.4119 -19.4101
   -18.9967 -18.9900 -18.3279 -18.3253 -18.3166 -18.3158 -17.7990 -17.7876
   -12.0755 -12.0732 -12.0646 -12.0638 -11.8857 -11.8743 -11.3355 -11.3288
   -10.2419 -10.2335 -10.1394 -10.1382 -10.1301 -10.1296  -8.5811  -8.5541
    -8.5519  -8.5461  -8.5449  -8.5302  -7.8708  -7.8694  -7.8606  -7.8604
    -7.8272  -7.8212  -7.7768  -7.7425  -7.4954  -7.4894  -6.6182  -6.6088
    -6.3421  -6.3319  -6.2906  -6.2872  -6.1942  -6.1900  -5.7053  -5.6882
    -5.5508  -5.5445  -4.7187  -4.7164  -4.6868  -4.6814  -3.8841  -3.8570
    -1.5172   0.2744   0.5022   0.6068   0.6853   1.0520   1.1566   1.2699
     1.4749   1.5579   1.5795   1.6323   1.7143   1.7704   1.8515   1.9295
     2.0102   2.1602   2.2159   2.2535   2.3151   2.4290

          k =-1.0000 0.0000 0.0000 ( 59292 PWs)   bands (ev):

   -68.8469 -68.7818 -40.7470 -40.3138 -40.2370 -40.1863 -40.1702 -40.1194
   -21.0786 -21.0211 -20.4754 -20.4687 -19.4321 -19.4298 -19.4118 -19.4016
   -19.0160 -18.9716 -18.3852 -18.3128 -18.3070 -18.2820 -17.7969 -17.7915
   -12.1180 -12.0709 -12.0500 -12.0349 -11.8828 -11.8773 -11.3542 -11.3116
   -10.2463 -10.2444 -10.1338 -10.1336 -10.1288 -10.1281  -8.6131  -8.5849
    -8.5539  -8.5349  -8.5190  -8.4903  -7.8788  -7.8734  -7.8652  -7.8634
    -7.8161  -7.8148  -7.7722  -7.7600  -7.5187  -7.4681  -6.6140  -6.6104
    -6.3387  -6.3335  -6.2895  -6.2760  -6.2129  -6.1741  -5.7281  -5.6679
    -5.5707  -5.5246  -4.8071  -4.6887  -4.6709  -4.6405  -3.8753  -3.8680
    -1.5387   0.5002   0.5890   0.6027   0.6972   1.0360   1.0756   1.1828
     1.3376   1.4814   1.6080   1.6250   1.6328   1.6488   1.7867   1.8350
     2.0651   2.2251   2.2465   2.2871   2.3380   2.4259

     the Fermi energy is    -0.8119 ev

!    total energy              =   -1133.79612851 Ry

     total all-electron energy =     -6753.471832 Ry
     estimated scf accuracy    <       0.00000002 Ry
     smearing contrib. (-TS)   =      -0.00000000 Ry
     internal energy E=F+TS    =   -1133.79612851 Ry

     The total energy is F=E-TS. E is the sum of the following terms:
     one-electron contribution =   -3976.14070633 Ry
     hartree contribution      =    2016.14290035 Ry
     xc contribution           =    -186.07435680 Ry
     ewald contribution        =    1371.64990085 Ry
     DFT-D3 Dispersion         =      -0.12218201 Ry
     one-center paw contrib.   =    -359.25168457 Ry

     total magnetization       =    10.00 Bohr mag/cell
     absolute magnetization    =    10.01 Bohr mag/cell

     convergence has been achieved in  15 iterations

     Writing output data file ./mytmp/Crdimer0.12-0.1.save/
 
     init_run     :     18.45s CPU     19.33s WALL (       1 calls)
     electrons    :    516.73s CPU    551.94s WALL (       1 calls)

     Called by init_run:
     wfcinit      :     13.64s CPU     14.14s WALL (       1 calls)
     potinit      :      1.50s CPU      1.59s WALL (       1 calls)
     hinit0       :      1.53s CPU      1.62s WALL (       1 calls)

     Called by electrons:
     c_bands      :    412.91s CPU    438.44s WALL (      15 calls)
     sum_band     :     80.82s CPU     86.37s WALL (      15 calls)
     v_of_rho     :      4.94s CPU      5.28s WALL (      16 calls)
     newd         :      9.95s CPU     13.28s WALL (      16 calls)
     PAW_pot      :      7.34s CPU      7.89s WALL (      16 calls)
     mix_rho      :      1.08s CPU      1.11s WALL (      15 calls)

     Called by c_bands:
     init_us_2    :      5.38s CPU      5.44s WALL (     930 calls)
     cegterg      :    399.74s CPU    425.16s WALL (     450 calls)

     Called by *egterg:
     cdiaghg      :     25.70s CPU     40.24s WALL (    2817 calls)
     h_psi        :    258.74s CPU    268.15s WALL (    2847 calls)
     s_psi        :     28.69s CPU     28.80s WALL (    2847 calls)
     g_psi        :      0.75s CPU      0.77s WALL (    2367 calls)

     Called by h_psi:
     h_psi:calbec :     29.54s CPU     30.26s WALL (    2847 calls)
     vloc_psi     :    197.83s CPU    206.31s WALL (    2847 calls)
     add_vuspsi   :     29.16s CPU     29.35s WALL (    2847 calls)

     General routines
     calbec       :     39.56s CPU     40.45s WALL (    3297 calls)
     fft          :      4.65s CPU      5.57s WALL (     394 calls)
     ffts         :      0.12s CPU      0.12s WALL (      62 calls)
     fftw         :    204.32s CPU    212.96s WALL (  266194 calls)
     interpolate  :      0.43s CPU      0.46s WALL (      32 calls)
 
     Parallel routines
     fft_scatt_xy :     33.21s CPU     34.41s WALL (  266650 calls)
     fft_scatt_yz :     79.73s CPU     84.42s WALL (  266650 calls)
 
     PWSCF        :   8m57.23s CPU   9m35.46s WALL

 
   This run was terminated on:  12:16:41  31Mar2021            

=------------------------------------------------------------------------------=
   JOB DONE.
=------------------------------------------------------------------------------=
