
     Program PWSCF v.6.7MaX starts on 31Mar2021 at 10:36:57 

     This program is part of the open-source Quantum ESPRESSO suite
     for quantum simulation of materials; please cite
         "P. Giannozzi et al., J. Phys.:Condens. Matter 21 395502 (2009);
         "P. Giannozzi et al., J. Phys.:Condens. Matter 29 465901 (2017);
          URL http://www.quantum-espresso.org", 
     in publications or presentations arising from this work. More details at
     http://www.quantum-espresso.org/quote

     Parallel version (MPI), running on    48 processors

     MPI processes distributed on     1 nodes
     R & G space division:  proc/nbgrp/npool/nimage =      48
     Reading input from Crdimer0.1-0.4.scf.in

     Current dimensions of program PWSCF are:
     Max number of different atomic species (ntypx) = 10
     Max number of k-points (npk) =  40000
     Max angular momentum in pseudopotentials (lmaxx) =  3
     file N.pbe-n-kjpaw_psl.1.0.0.UPF: wavefunction(s)  2S renormalized
     file Cr.pbe-spn-kjpaw_psl.1.0.0.UPF: wavefunction(s)  3S 3P 3D renormalized
     file Cr.pbe-spn-kjpaw_psl.1.0.0.UPF: wavefunction(s)  3S 3P 3D renormalized

     --------------------------------------------
     Parameters for DFT-D3 Dispersion Correction:
     --------------------------------------------
       Reference C6 values for interpolation: 

         atom   Coordination number   C6
         B          0.000           214.36
         B          0.971           150.74
         B          1.944           106.23
         B          2.913            62.89
         B          4.586            56.06
         N          0.000            50.54
         N          0.994            44.25
         N          2.014            39.35
         N          2.990            31.16
         Cr1        0.000          1381.48
         Cr1        1.827           571.38
         Cr1       10.619           306.69
         Cr2        0.000          1381.48
         Cr2        1.827           571.38
         Cr2       10.619           306.69

       Values used:

         atom   Coordination number  R0_AB[au]  C6      C8
         B          3.336            3.039     62.89   2505.98
         B          3.336            3.039     62.89   2505.98
         B          3.336            3.039     62.89   2505.99
         B          3.335            3.039     62.89   2506.01
         B          3.355            3.039     62.88   2505.51
         B          3.335            3.039     62.89   2506.01
         N          3.134            2.478     31.22    688.70
         N          3.143            2.478     31.21    688.62
         N          3.135            2.478     31.22    688.68
         N          3.134            2.478     31.22    688.70
         N          3.163            2.478     31.21    688.45
         N          3.135            2.478     31.22    688.69
         N          3.142            2.478     31.21    688.62
         N          3.134            2.478     31.22    688.69
         N          3.134            2.478     31.22    688.70
         B          3.345            3.039     62.89   2505.77
         B          3.336            3.039     62.89   2505.98
         B          3.335            3.039     62.89   2506.01
         B          3.355            3.039     62.88   2505.51
         B          3.336            3.039     62.89   2505.98
         B          3.345            3.039     62.89   2505.77
         N          3.142            2.478     31.21    688.62
         B          3.335            3.039     62.89   2506.00
         B          3.370            3.039     62.87   2505.07
         B          3.335            3.039     62.89   2506.00
         N          3.135            2.478     31.22    688.69
         N          3.143            2.478     31.21    688.62
         N          3.134            2.478     31.22    688.70
         N          3.134            2.478     31.22    688.70
         N          3.135            2.478     31.22    688.68
         N          3.134            2.478     31.22    688.70
         B          3.335            3.039     62.89   2506.00
         Cr1        1.090            3.252    613.46  56615.16
         Cr2        1.090            3.252    613.46  56615.16

         Molecular C6 ( Ry / a.u.^6 ) =     68927.81


     Subspace diagonalization in iterative solution of the eigenvalue problem:
     one sub-group per band group will be used
     scalapack distributed-memory algorithm (size of sub-group:  6*  6 procs)

 
     Parallelization info
     --------------------
     sticks:   dense  smooth     PW     G-vecs:    dense   smooth      PW
     Min         235      98     26                36277     9874    1408
     Max         236      99     27                36282     9883    1425
     Sum       11311    4741   1285              1741401   474235   68095
 


     bravais-lattice index     =            4
     lattice parameter (alat)  =      18.9275  a.u.
     unit-cell volume          =   10553.3021 (a.u.)^3
     number of atoms/cell      =           34
     number of atomic types    =            4
     number of electrons       =       156.00
     number of Kohn-Sham states=           94
     kinetic-energy cutoff     =      48.0000  Ry
     charge density cutoff     =     457.0000  Ry
     scf convergence threshold =      1.0E-07
     mixing beta               =       0.5000
     number of iterations used =            8  plain     mixing
     Exchange-correlation= SLA  PW   PBX  PBC
                           (   1   4   3   4   0   0   0)

     celldm(1)=  18.927497  celldm(2)=   0.000000  celldm(3)=   1.797125
     celldm(4)=   0.000000  celldm(5)=   0.000000  celldm(6)=   0.000000

     crystal axes: (cart. coord. in units of alat)
               a(1) = (   1.000000   0.000000   0.000000 )  
               a(2) = (  -0.500000   0.866025   0.000000 )  
               a(3) = (   0.000000   0.000000   1.797125 )  

     reciprocal axes: (cart. coord. in units 2 pi/alat)
               b(1) = (  1.000000  0.577350  0.000000 )  
               b(2) = (  0.000000  1.154701  0.000000 )  
               b(3) = (  0.000000  0.000000  0.556444 )  


     PseudoPot. # 1 for B  read from file:
     /home/sf05/q-e-qe-6.7MaX-Release/pseudo/B.pbe-n-kjpaw_psl.1.0.0.UPF
     MD5 check sum: d9c678ba5d3b2fd7b74e61139c9288d8
     Pseudo is Projector augmented-wave + core cor, Zval =  3.0
     Generated using "atomic" code by A. Dal Corso  v.5.1.2
     Shape of augmentation charge: PSQ
     Using radial grid of 1059 points,  4 beta functions with: 
                l(1) =   0
                l(2) =   0
                l(3) =   1
                l(4) =   1
     Q(r) pseudized with 0 coefficients 


     PseudoPot. # 2 for N  read from file:
     /home/sf05/q-e-qe-6.7MaX-Release/pseudo/N.pbe-n-kjpaw_psl.1.0.0.UPF
     MD5 check sum: e0e4e94a9c4025c5b51bd7d8793849bd
     Pseudo is Projector augmented-wave + core cor, Zval =  5.0
     Generated using "atomic" code by A. Dal Corso  v.5.1.2
     Shape of augmentation charge: PSQ
     Using radial grid of 1085 points,  4 beta functions with: 
                l(1) =   0
                l(2) =   0
                l(3) =   1
                l(4) =   1
     Q(r) pseudized with 0 coefficients 


     PseudoPot. # 3 for Cr read from file:
     /home/sf05/q-e-qe-6.7MaX-Release/pseudo/Cr.pbe-spn-kjpaw_psl.1.0.0.UPF
     MD5 check sum: 198f1a2427a48552563eee314eba32ba
     Pseudo is Projector augmented-wave + core cor, Zval = 14.0
     Generated using &quot;atomic&quot; code by A. Dal Corso  v.6.3
     Shape of augmentation charge: PSQ
     Using radial grid of 1183 points,  6 beta functions with: 
                l(1) =   0
                l(2) =   0
                l(3) =   1
                l(4) =   1
                l(5) =   2
                l(6) =   2
     Q(r) pseudized with 0 coefficients 


     PseudoPot. # 4 for Cr read from file:
     /home/sf05/q-e-qe-6.7MaX-Release/pseudo/Cr.pbe-spn-kjpaw_psl.1.0.0.UPF
     MD5 check sum: 198f1a2427a48552563eee314eba32ba
     Pseudo is Projector augmented-wave + core cor, Zval = 14.0
     Generated using &quot;atomic&quot; code by A. Dal Corso  v.6.3
     Shape of augmentation charge: PSQ
     Using radial grid of 1183 points,  6 beta functions with: 
                l(1) =   0
                l(2) =   0
                l(3) =   1
                l(4) =   1
                l(5) =   2
                l(6) =   2
     Q(r) pseudized with 0 coefficients 


     atomic species   valence    mass     pseudopotential
        B              3.00    10.81100     B ( 1.00)
        N              5.00    14.00674     N ( 1.00)
        Cr1           14.00    51.99610     Cr( 1.00)
        Cr2           14.00    51.99610     Cr( 1.00)

     Starting magnetic structure 
     atomic species   magnetization
        B            0.000
        N            0.000
        Cr1          1.000
        Cr2          1.000

     No symmetry found



   Cartesian axes

     site n.     atom                  positions (alat units)
         1           B   tau(   1) = (  -0.1250000   0.2165064   0.8985623  )
         2           B   tau(   2) = (   0.3750000   0.6495191   0.8985623  )
         3           B   tau(   3) = (   0.2500000   0.0000000   0.8985623  )
         4           B   tau(   4) = (   0.7500000   0.0000000   0.8985623  )
         5           B   tau(   5) = (   0.1250000   0.2165064   0.8985623  )
         6           B   tau(   6) = (  -0.3750000   0.6495191   0.8985623  )
         7           N   tau(   7) = (   0.7500005   0.2886748   0.8985623  )
         8           N   tau(   8) = (   0.3750005   0.5051812   0.8985623  )
         9           N   tau(   9) = (   0.3750005   0.0721685   0.8985623  )
        10           N   tau(  10) = (   0.6250005   0.0721685   0.8985623  )
        11           N   tau(  11) = (   0.2500005   0.2886748   0.8985623  )
        12           N   tau(  12) = (   0.6250005   0.5051812   0.8985623  )
        13           N   tau(  13) = (   0.0000005   0.2886748   0.8985623  )
        14           N   tau(  14) = (   0.2500005   0.7216875   0.8985623  )
        15           N   tau(  15) = (  -0.2499995   0.7216875   0.8985623  )
        16           B   tau(  16) = (   0.0000000   0.4330127   0.8985623  )
        17           B   tau(  17) = (   0.1250000   0.6495191   0.8985623  )
        18           B   tau(  18) = (  -0.1250000   0.6495191   0.8985623  )
        19           B   tau(  19) = (   0.3750000   0.2165064   0.8985623  )
        20           B   tau(  20) = (   0.6250000   0.2165064   0.8985623  )
        21           B   tau(  21) = (   0.5000000   0.4330127   0.8985623  )
        22           N   tau(  22) = (   0.5000005   0.2886748   0.8985623  )
        23           B   tau(  23) = (  -0.2500000   0.4330127   0.8985623  )
        24           B   tau(  24) = (   0.2500000   0.4330127   0.8985623  )
        25           B   tau(  25) = (   0.5000000   0.0000000   0.8985623  )
        26           N   tau(  26) = (  -0.1249995   0.5051812   0.8985623  )
        27           N   tau(  27) = (   0.1250005   0.5051812   0.8985623  )
        28           N   tau(  28) = (   0.0000005   0.7216875   0.8985623  )
        29           N   tau(  29) = (   0.5000005   0.7216875   0.8985623  )
        30           N   tau(  30) = (   0.1250005   0.0721685   0.8985623  )
        31           N   tau(  31) = (   0.8750005   0.0721685   0.8985623  )
        32           B   tau(  32) = (   0.0000000   0.0000000   0.8985623  )
        33           Cr1 tau(  33) = (   0.3500000   0.3464102   1.2040735  )
        34           Cr2 tau(  34) = (   0.1500000   0.3464102   1.2040735  )

     number of k points=    15  Gaussian smearing, width (Ry)=  0.0000
                       cart. coord. in units 2pi/alat
        k(    1) = (   0.1666667   0.2886751   0.0000000), wk =   0.0740741
        k(    2) = (   0.1666667  -0.4811252   0.0000000), wk =   0.0740741
        k(    3) = (   0.1666667  -0.0962250   0.0000000), wk =   0.0740741
        k(    4) = (  -0.5000000  -0.8660254   0.0000000), wk =   0.0370370
        k(    5) = (  -0.1666667   0.2886751   0.0000000), wk =   0.0740741
        k(    6) = (   0.3333333   0.0000000   0.0000000), wk =   0.0740741
        k(    7) = (  -0.1666667  -0.4811252   0.0000000), wk =   0.0740741
        k(    8) = (   0.5000000  -0.0962250   0.0000000), wk =   0.0740741
        k(    9) = (  -0.3333333  -0.3849002   0.0000000), wk =   0.0740741
        k(   10) = (   0.5000000   0.0962250   0.0000000), wk =   0.0740741
        k(   11) = (  -0.3333333   0.3849002   0.0000000), wk =   0.0740741
        k(   12) = (  -0.1666667  -0.0962250   0.0000000), wk =   0.0740741
        k(   13) = (  -0.0000000  -0.1924501   0.0000000), wk =   0.0740741
        k(   14) = (   0.5000000  -0.8660254   0.0000000), wk =   0.0370370
        k(   15) = (  -1.0000000   0.0000000   0.0000000), wk =   0.0370370

     Dense  grid:  1741401 G-vectors     FFT dimensions: ( 135, 135, 240)

     Smooth grid:   474235 G-vectors     FFT dimensions: (  90,  90, 160)

     Estimated max dynamical RAM per process >     218.62 MB

     Estimated total dynamical RAM >      10.25 GB
     Generating pointlists ...
     new r_m :   0.0595 (alat units)  1.1269 (a.u.) for type    1
     new r_m :   0.0595 (alat units)  1.1269 (a.u.) for type    2
     new r_m :   0.0825 (alat units)  1.5615 (a.u.) for type    3
     new r_m :   0.0825 (alat units)  1.5615 (a.u.) for type    4

     Initial potential from superposition of free atoms

     starting charge  155.99382, renormalised to  156.00000

     negative rho (up, down):  6.882E-03 4.655E-04
     Starting wfcs are  148 randomized atomic wfcs
     Checking if some PAW data can be deallocated... 

     total cpu time spent up to now is       19.7 secs

     Self-consistent Calculation

     iteration #  1     ecut=    48.00 Ry     beta= 0.50
     Davidson diagonalization with overlap
     ethr =  1.00E-02,  avg # of iterations =  4.9

     negative rho (up, down):  5.409E-01 2.898E-03

     total cpu time spent up to now is       63.4 secs

     total energy              =   -1128.36487335 Ry
     estimated scf accuracy    <      32.32080111 Ry

     total magnetization       =    12.00 Bohr mag/cell
     absolute magnetization    =    16.10 Bohr mag/cell

     iteration #  2     ecut=    48.00 Ry     beta= 0.50
     Davidson diagonalization with overlap
     ethr =  1.00E-02,  avg # of iterations =  2.4

     negative rho (up, down):  1.024E+00 1.794E-02

     total cpu time spent up to now is       96.2 secs

     total energy              =   -1127.07135509 Ry
     estimated scf accuracy    <      24.34197651 Ry

     total magnetization       =     6.15 Bohr mag/cell
     absolute magnetization    =     6.56 Bohr mag/cell

     iteration #  3     ecut=    48.00 Ry     beta= 0.50
     Davidson diagonalization with overlap
     ethr =  1.00E-02,  avg # of iterations =  5.5

     negative rho (up, down):  1.358E+00 3.610E-02

     total cpu time spent up to now is      139.3 secs

     total energy              =   -1128.34654423 Ry
     estimated scf accuracy    <      55.57553402 Ry

     total magnetization       =     8.00 Bohr mag/cell
     absolute magnetization    =     8.22 Bohr mag/cell

     iteration #  4     ecut=    48.00 Ry     beta= 0.50
     Davidson diagonalization with overlap
     ethr =  1.00E-02,  avg # of iterations =  2.0

     negative rho (up, down):  7.916E-01 2.059E-02

     total cpu time spent up to now is      169.3 secs

     total energy              =   -1133.26326174 Ry
     estimated scf accuracy    <       2.38813640 Ry

     total magnetization       =    11.26 Bohr mag/cell
     absolute magnetization    =    11.46 Bohr mag/cell

     iteration #  5     ecut=    48.00 Ry     beta= 0.50
     Davidson diagonalization with overlap
     ethr =  1.53E-03,  avg # of iterations =  6.6

     negative rho (up, down):  1.904E-01 7.725E-03

     total cpu time spent up to now is      204.1 secs

     total energy              =   -1133.44788246 Ry
     estimated scf accuracy    <       1.49259517 Ry

     total magnetization       =    10.00 Bohr mag/cell
     absolute magnetization    =    10.11 Bohr mag/cell

     iteration #  6     ecut=    48.00 Ry     beta= 0.50
     Davidson diagonalization with overlap
     ethr =  9.57E-04,  avg # of iterations =  6.3

     negative rho (up, down):  1.011E-02 5.213E-03

     total cpu time spent up to now is      239.0 secs

     total energy              =   -1133.53781951 Ry
     estimated scf accuracy    <       0.56635885 Ry

     total magnetization       =    10.00 Bohr mag/cell
     absolute magnetization    =    10.03 Bohr mag/cell

     iteration #  7     ecut=    48.00 Ry     beta= 0.50
     Davidson diagonalization with overlap
     ethr =  3.63E-04,  avg # of iterations =  9.0

     negative rho (up, down):  1.309E-02 5.770E-03

     total cpu time spent up to now is      278.9 secs

     total energy              =   -1133.61968540 Ry
     estimated scf accuracy    <       0.19136083 Ry

     total magnetization       =    10.00 Bohr mag/cell
     absolute magnetization    =    10.07 Bohr mag/cell

     iteration #  8     ecut=    48.00 Ry     beta= 0.50
     Davidson diagonalization with overlap
     ethr =  1.23E-04,  avg # of iterations =  3.7

     negative rho (up, down):  2.198E-02 4.848E-03

     total cpu time spent up to now is      310.3 secs

     total energy              =   -1133.62913106 Ry
     estimated scf accuracy    <       0.03304708 Ry

     total magnetization       =    10.00 Bohr mag/cell
     absolute magnetization    =    10.04 Bohr mag/cell

     iteration #  9     ecut=    48.00 Ry     beta= 0.50
     Davidson diagonalization with overlap
     ethr =  2.12E-05,  avg # of iterations =  9.8

     negative rho (up, down):  1.896E-02 4.136E-03

     total cpu time spent up to now is      352.9 secs

     total energy              =   -1133.63287075 Ry
     estimated scf accuracy    <       0.00990428 Ry

     total magnetization       =    10.00 Bohr mag/cell
     absolute magnetization    =    10.03 Bohr mag/cell

     iteration # 10     ecut=    48.00 Ry     beta= 0.50
     Davidson diagonalization with overlap
     c_bands:  1 eigenvalues not converged
     c_bands:  1 eigenvalues not converged
     ethr =  6.35E-06,  avg # of iterations =  9.3

     negative rho (up, down):  5.699E-03 3.864E-03

     total cpu time spent up to now is      390.6 secs

     total energy              =   -1133.63598186 Ry
     estimated scf accuracy    <       0.00392448 Ry

     total magnetization       =    10.00 Bohr mag/cell
     absolute magnetization    =    10.02 Bohr mag/cell

     iteration # 11     ecut=    48.00 Ry     beta= 0.50
     Davidson diagonalization with overlap
     ethr =  2.52E-06,  avg # of iterations = 10.7

     negative rho (up, down):  3.871E-03 3.921E-03

     total cpu time spent up to now is      434.3 secs

     total energy              =   -1133.63655627 Ry
     estimated scf accuracy    <       0.00086332 Ry

     total magnetization       =    10.00 Bohr mag/cell
     absolute magnetization    =    10.02 Bohr mag/cell

     iteration # 12     ecut=    48.00 Ry     beta= 0.50
     Davidson diagonalization with overlap
     c_bands:  2 eigenvalues not converged
     c_bands:  2 eigenvalues not converged
     ethr =  5.53E-07,  avg # of iterations =  5.0

     negative rho (up, down):  3.481E-03 3.976E-03

     total cpu time spent up to now is      467.1 secs

     total energy              =   -1133.63676627 Ry
     estimated scf accuracy    <       0.00014624 Ry

     total magnetization       =    10.00 Bohr mag/cell
     absolute magnetization    =    10.02 Bohr mag/cell

     iteration # 13     ecut=    48.00 Ry     beta= 0.50
     Davidson diagonalization with overlap
     c_bands:  1 eigenvalues not converged
     ethr =  9.37E-08,  avg # of iterations =  5.6

     negative rho (up, down):  3.342E-03 3.963E-03

     total cpu time spent up to now is      502.8 secs

     total energy              =   -1133.63684823 Ry
     estimated scf accuracy    <       0.00004536 Ry

     total magnetization       =    10.00 Bohr mag/cell
     absolute magnetization    =    10.02 Bohr mag/cell

     iteration # 14     ecut=    48.00 Ry     beta= 0.50
     Davidson diagonalization with overlap
     ethr =  2.91E-08,  avg # of iterations =  3.8

     negative rho (up, down):  3.290E-03 3.971E-03

     total cpu time spent up to now is      534.2 secs

     total energy              =   -1133.63687501 Ry
     estimated scf accuracy    <       0.00001005 Ry

     total magnetization       =    10.00 Bohr mag/cell
     absolute magnetization    =    10.02 Bohr mag/cell

     iteration # 15     ecut=    48.00 Ry     beta= 0.50
     Davidson diagonalization with overlap
     ethr =  6.44E-09,  avg # of iterations =  3.7

     negative rho (up, down):  3.280E-03 3.983E-03

     total cpu time spent up to now is      566.9 secs

     total energy              =   -1133.63688710 Ry
     estimated scf accuracy    <       0.00000476 Ry

     total magnetization       =    10.00 Bohr mag/cell
     absolute magnetization    =    10.02 Bohr mag/cell

     iteration # 16     ecut=    48.00 Ry     beta= 0.50
     Davidson diagonalization with overlap
     ethr =  3.05E-09,  avg # of iterations =  4.0

     negative rho (up, down):  3.275E-03 3.989E-03

     total cpu time spent up to now is      600.0 secs

     total energy              =   -1133.63689361 Ry
     estimated scf accuracy    <       0.00000141 Ry

     total magnetization       =    10.00 Bohr mag/cell
     absolute magnetization    =    10.02 Bohr mag/cell

     iteration # 17     ecut=    48.00 Ry     beta= 0.50
     Davidson diagonalization with overlap
     ethr =  9.05E-10,  avg # of iterations =  4.7

     negative rho (up, down):  3.268E-03 3.987E-03

     total cpu time spent up to now is      635.2 secs

     total energy              =   -1133.63689892 Ry
     estimated scf accuracy    <       0.00000047 Ry

     total magnetization       =    10.00 Bohr mag/cell
     absolute magnetization    =    10.02 Bohr mag/cell

     iteration # 18     ecut=    48.00 Ry     beta= 0.50
     Davidson diagonalization with overlap
     ethr =  3.04E-10,  avg # of iterations =  4.4

     negative rho (up, down):  3.261E-03 3.978E-03
 
     Magnetic moment per site:
     atom:    1    charge:    0.8805    magn:    0.0007    constr:    0.0000
     atom:    2    charge:    0.8803    magn:    0.0007    constr:    0.0000
     atom:    3    charge:    0.8802    magn:    0.0000    constr:    0.0000
     atom:    4    charge:    0.8803    magn:    0.0001    constr:    0.0000
     atom:    5    charge:    0.8804    magn:    0.0006    constr:    0.0000
     atom:    6    charge:    0.8803    magn:    0.0001    constr:    0.0000
     atom:    7    charge:    2.8609    magn:    0.0002    constr:    0.0000
     atom:    8    charge:    2.8607    magn:    0.0056    constr:    0.0000
     atom:    9    charge:    2.8609    magn:    0.0021    constr:    0.0000
     atom:   10    charge:    2.8609    magn:    0.0004    constr:    0.0000
     atom:   11    charge:    2.8604    magn:    0.0141    constr:    0.0000
     atom:   12    charge:    2.8610    magn:    0.0003    constr:    0.0000
     atom:   13    charge:    2.8596    magn:    0.0054    constr:    0.0000
     atom:   14    charge:    2.8598    magn:    0.0003    constr:    0.0000
     atom:   15    charge:    2.8600    magn:    0.0000    constr:    0.0000
     atom:   16    charge:    0.8801    magn:    0.0000    constr:    0.0000
     atom:   17    charge:    0.8800    magn:    0.0007    constr:    0.0000
     atom:   18    charge:    0.8800    magn:    0.0001    constr:    0.0000
     atom:   19    charge:    0.8798    magn:    0.0006    constr:    0.0000
     atom:   20    charge:    0.8800    magn:    0.0007    constr:    0.0000
     atom:   21    charge:    0.8799    magn:    0.0000    constr:    0.0000
     atom:   22    charge:    2.8609    magn:    0.0054    constr:    0.0000
     atom:   23    charge:    0.8801    magn:    0.0001    constr:    0.0000
     atom:   24    charge:    0.8799    magn:   -0.0007    constr:    0.0000
     atom:   25    charge:    0.8799    magn:    0.0001    constr:    0.0000
     atom:   26    charge:    2.8598    magn:    0.0003    constr:    0.0000
     atom:   27    charge:    2.8596    magn:    0.0055    constr:    0.0000
     atom:   28    charge:    2.8598    magn:    0.0001    constr:    0.0000
     atom:   29    charge:    2.8596    magn:    0.0001    constr:    0.0000
     atom:   30    charge:    2.8596    magn:    0.0021    constr:    0.0000
     atom:   31    charge:    2.8596    magn:    0.0004    constr:    0.0000
     atom:   32    charge:    0.8802    magn:    0.0001    constr:    0.0000
     atom:   33    charge:   11.2265    magn:    3.3832    constr:    0.0000
     atom:   34    charge:   11.2265    magn:    3.3833    constr:    0.0000

     total cpu time spent up to now is      669.9 secs

     End of self-consistent calculation

 ------ SPIN UP ------------


          k = 0.1667 0.2887 0.0000 ( 59267 PWs)   bands (ev):

   -73.6501 -73.2625 -46.0390 -44.8972 -44.8652 -44.6563 -44.6239 -44.3531
   -21.2507 -20.6768 -20.6451 -20.1054 -20.1008 -19.6029 -19.5724 -19.1028
   -18.7122 -18.6831 -18.4577 -18.4547 -18.1992 -18.0919 -18.0730 -17.8514
   -12.4872 -12.2090 -12.2055 -11.8271 -11.8162 -11.6608 -11.2041 -11.1820
   -10.3941 -10.3703 -10.1270 -10.1101  -9.5957  -9.5864  -8.8520  -8.8286
    -8.8229  -8.7794  -8.7531  -8.5990  -8.1994  -8.0866  -7.9920  -7.8313
    -7.8296  -7.4451  -7.4357  -7.2860  -7.2651  -7.2154  -7.2035  -6.9613
    -6.9587  -6.5971  -6.5156  -6.1578  -6.1533  -5.8809  -5.4207  -5.3267
    -5.2701  -5.2023  -4.9210  -4.9074  -4.5376  -4.3661  -4.3434  -4.0331
    -3.9994  -3.9616  -3.8302  -3.0241  -2.4740  -2.4174  -1.5681  -1.5623
    -1.0624  -1.0036  -0.9657  -0.1084   0.4027   0.8168   1.1265   1.2393
     1.3574   1.4891   1.5314   1.5861   1.6138   1.8367

          k = 0.1667-0.4811 0.0000 ( 59291 PWs)   bands (ev):

   -73.6501 -73.2625 -46.0390 -44.8972 -44.8652 -44.6563 -44.6239 -44.3531
   -21.1210 -20.9159 -20.7238 -20.1632 -19.8074 -19.4695 -19.3217 -19.1756
   -19.0183 -18.7800 -18.6442 -18.5462 -18.1529 -18.0912 -17.9226 -17.7259
   -12.3516 -12.1173 -12.0465 -11.9094 -11.6892 -11.6546 -11.5553 -10.9443
   -10.8923 -10.6257 -10.5251  -9.8629  -9.6958  -9.3386  -9.1135  -8.6850
    -8.6263  -8.5549  -8.3920  -8.3772  -8.1629  -8.1183  -8.0712  -8.0472
    -7.6908  -7.6254  -7.4988  -7.4736  -7.3602  -7.1734  -7.0703  -6.8678
    -6.6244  -6.3967  -6.1916  -6.1603  -5.9694  -5.9310  -5.7858  -5.7568
    -5.4534  -5.3984  -5.2280  -5.0472  -4.4828  -4.3523  -4.1017  -4.0090
    -3.9867  -3.8683  -3.7409  -3.0212  -2.4746  -2.4169  -1.5682  -1.5639
    -1.0633  -1.0031  -0.9658  -0.1131   0.3359   0.8483   1.0749   1.1715
     1.2316   1.3389   1.4970   1.8537   1.8997   2.1434

          k = 0.1667-0.0962 0.0000 ( 59226 PWs)   bands (ev):

   -73.6501 -73.2625 -46.0390 -44.8972 -44.8651 -44.6563 -44.6239 -44.3531
   -21.3170 -20.5398 -20.3500 -20.3394 -19.9965 -19.9781 -19.8071 -18.7379
   -18.7211 -18.3846 -18.3719 -18.3558 -18.2661 -18.2627 -18.0806 -18.0706
   -12.5092 -12.5063 -12.4112 -11.5870 -11.5760 -11.4274 -11.4241 -10.9298
   -10.9251  -9.9325  -9.9280  -9.6783  -9.3776  -9.3753  -9.2324  -9.2303
    -9.0441  -9.0428  -8.9349  -8.3267  -8.3232  -7.9039  -7.9021  -7.8944
    -7.8470  -7.7729  -7.6174  -7.5814  -7.1522  -7.0841  -6.9619  -6.8924
    -6.8851  -6.8510  -6.5350  -6.5289  -6.2597  -5.3796  -5.3146  -5.1454
    -5.0674  -4.8455  -4.8056  -4.7616  -4.6147  -4.6072  -4.3766  -4.3303
    -4.0087  -3.9856  -3.8424  -3.0272  -2.4745  -2.4177  -1.5680  -1.5610
    -1.0613  -1.0041  -0.9656  -0.1029   0.4748   0.7793   1.1364   1.2158
     1.2686   1.3570   1.5932   1.6003   1.8068   2.0049

          k =-0.5000-0.8660 0.0000 ( 59292 PWs)   bands (ev):

   -73.6501 -73.2625 -46.0390 -44.8972 -44.8651 -44.6563 -44.6238 -44.3532
   -21.0694 -21.0338 -20.4756 -20.4631 -19.4353 -19.4241 -19.4123 -19.4098
   -19.0051 -18.9802 -18.3513 -18.3259 -18.3137 -18.2950 -17.7987 -17.7872
   -12.0912 -12.0763 -12.0572 -12.0471 -11.8860 -11.8707 -11.3414 -11.3197
   -10.2429 -10.2329 -10.1378 -10.1353 -10.1280 -10.1275  -8.6348  -8.5669
    -8.5532  -8.5410  -8.5294  -8.5177  -7.8717  -7.8682  -7.8615  -7.8577
    -7.8226  -7.8220  -7.7920  -7.7499  -7.5035  -7.4773  -6.6177  -6.6065
    -6.3808  -6.3412  -6.3015  -6.2968  -6.1998  -6.1815  -5.7299  -5.6888
    -5.5584  -5.5335  -4.7897  -4.7360  -4.6886  -4.6613  -4.0483  -3.9906
    -3.9712  -3.8611  -3.7589  -3.0205  -2.4742  -2.4178  -1.5673  -1.5628
    -1.0723  -1.0071  -0.9638  -0.2017   0.4385   0.8525   1.0925   1.1227
     1.5289   1.5877   1.5910   1.6189   1.7804   1.8570

          k =-0.1667 0.2887 0.0000 ( 59267 PWs)   bands (ev):

   -73.6501 -73.2625 -46.0390 -44.8972 -44.8652 -44.6563 -44.6239 -44.3531
   -21.2507 -20.6768 -20.6451 -20.1055 -20.1008 -19.6029 -19.5725 -19.1028
   -18.7122 -18.6832 -18.4577 -18.4547 -18.1992 -18.0919 -18.0730 -17.8514
   -12.4872 -12.2091 -12.2055 -11.8271 -11.8162 -11.6608 -11.2040 -11.1820
   -10.3941 -10.3703 -10.1270 -10.1101  -9.5956  -9.5864  -8.8520  -8.8286
    -8.8229  -8.7794  -8.7531  -8.5990  -8.1994  -8.0866  -7.9920  -7.8313
    -7.8295  -7.4451  -7.4357  -7.2860  -7.2651  -7.2154  -7.2035  -6.9613
    -6.9588  -6.5971  -6.5156  -6.1577  -6.1533  -5.8809  -5.4207  -5.3267
    -5.2701  -5.2022  -4.9210  -4.9074  -4.5377  -4.3661  -4.3434  -4.0331
    -3.9994  -3.9616  -3.8302  -3.0241  -2.4740  -2.4174  -1.5681  -1.5623
    -1.0624  -1.0036  -0.9657  -0.1084   0.4027   0.8168   1.1266   1.2393
     1.3573   1.4891   1.5313   1.5861   1.6138   1.8367

          k = 0.3333 0.0000 0.0000 ( 59267 PWs)   bands (ev):

   -73.6501 -73.2625 -46.0390 -44.8972 -44.8652 -44.6563 -44.6239 -44.3531
   -21.2504 -20.6895 -20.6324 -20.1114 -20.0936 -19.6161 -19.5608 -19.1045
   -18.7196 -18.6719 -18.4647 -18.4488 -18.1966 -18.1058 -18.0637 -17.8506
   -12.4863 -12.2141 -12.2010 -11.8328 -11.8125 -11.6592 -11.2125 -11.1735
   -10.3940 -10.3698 -10.1334 -10.1043  -9.5983  -9.5827  -8.8531  -8.8297
    -8.8187  -8.7904  -8.7430  -8.5997  -8.2007  -8.1101  -7.9682  -7.8322
    -7.8272  -7.4477  -7.4325  -7.3001  -7.2469  -7.2203  -7.1986  -6.9669
    -6.9542  -6.6228  -6.4955  -6.1593  -6.1513  -5.8890  -5.4206  -5.3229
    -5.2567  -5.2025  -4.9464  -4.8892  -4.5170  -4.3948  -4.3329  -4.0451
    -3.9908  -3.9844  -3.8082  -3.0238  -2.4747  -2.4178  -1.5673  -1.5617
    -1.0673  -1.0063  -0.9641  -0.1698   0.4687   0.8103   1.2049   1.2298
     1.4107   1.4745   1.5607   1.5800   1.5908   1.9673

          k =-0.1667-0.4811 0.0000 ( 59291 PWs)   bands (ev):

   -73.6501 -73.2625 -46.0390 -44.8972 -44.8652 -44.6563 -44.6239 -44.3531
   -21.1210 -20.9159 -20.7238 -20.1632 -19.8074 -19.4695 -19.3217 -19.1756
   -19.0183 -18.7800 -18.6442 -18.5462 -18.1529 -18.0912 -17.9226 -17.7259
   -12.3516 -12.1173 -12.0465 -11.9094 -11.6892 -11.6546 -11.5553 -10.9443
   -10.8923 -10.6257 -10.5251  -9.8628  -9.6958  -9.3387  -9.1135  -8.6850
    -8.6263  -8.5549  -8.3920  -8.3772  -8.1628  -8.1183  -8.0713  -8.0472
    -7.6908  -7.6254  -7.4987  -7.4736  -7.3602  -7.1734  -7.0703  -6.8678
    -6.6244  -6.3967  -6.1916  -6.1604  -5.9694  -5.9309  -5.7858  -5.7567
    -5.4535  -5.3984  -5.2279  -5.0473  -4.4828  -4.3524  -4.1017  -4.0090
    -3.9867  -3.8683  -3.7409  -3.0212  -2.4746  -2.4169  -1.5682  -1.5639
    -1.0633  -1.0031  -0.9658  -0.1131   0.3359   0.8483   1.0749   1.1714
     1.2316   1.3389   1.4970   1.8537   1.8997   2.1439

          k = 0.5000-0.0962 0.0000 ( 59291 PWs)   bands (ev):

   -73.6501 -73.2625 -46.0390 -44.8972 -44.8652 -44.6563 -44.6239 -44.3531
   -21.1189 -20.9215 -20.7203 -20.1618 -19.8072 -19.4715 -19.3255 -19.1719
   -19.0193 -18.7812 -18.6362 -18.5503 -18.1458 -18.1016 -17.9207 -17.7255
   -12.3501 -12.1180 -12.0453 -11.9126 -11.6965 -11.6459 -11.5566 -10.9448
   -10.8906 -10.6243 -10.5271  -9.8613  -9.6961  -9.3392  -9.1131  -8.6787
    -8.6269  -8.5532  -8.3969  -8.3942  -8.1615  -8.1067  -8.0794  -8.0399
    -7.6878  -7.6258  -7.4984  -7.4742  -7.3555  -7.1743  -7.0709  -6.8667
    -6.6247  -6.4051  -6.2025  -6.1599  -5.9614  -5.9305  -5.7853  -5.7572
    -5.4544  -5.4033  -5.2016  -5.0570  -4.4518  -4.3772  -4.1253  -4.0063
    -3.9841  -3.8898  -3.7123  -3.0206  -2.4747  -2.4177  -1.5673  -1.5628
    -1.0722  -1.0071  -0.9639  -0.2008   0.4310   0.8467   1.0704   1.1862
     1.2623   1.3548   1.7306   1.8521   1.9684   2.0887

          k =-0.3333-0.3849 0.0000 ( 59291 PWs)   bands (ev):

   -73.6501 -73.2625 -46.0390 -44.8972 -44.8652 -44.6563 -44.6239 -44.3531
   -21.1197 -20.9195 -20.7217 -20.1616 -19.8090 -19.4698 -19.3216 -19.1749
   -19.0212 -18.7797 -18.6374 -18.5499 -18.1470 -18.0999 -17.9208 -17.7256
   -12.3511 -12.1157 -12.0472 -11.9113 -11.6897 -11.6539 -11.5560 -10.9447
   -10.8906 -10.6239 -10.5273  -9.8615  -9.6962  -9.3390  -9.1140  -8.6808
    -8.6257  -8.5546  -8.3933  -8.3887  -8.1625  -8.1116  -8.0718  -8.0484
    -7.6879  -7.6249  -7.5026  -7.4703  -7.3542  -7.1744  -7.0714  -6.8737
    -6.6233  -6.3981  -6.1893  -6.1616  -5.9700  -5.9296  -5.7855  -5.7671
    -5.4542  -5.3985  -5.2045  -5.0543  -4.4637  -4.3670  -4.1268  -4.0058
    -3.9890  -3.8693  -3.7256  -3.0207  -2.4744  -2.4175  -1.5677  -1.5632
    -1.0696  -1.0058  -0.9647  -0.1745   0.4010   0.8509   1.0731   1.1590
     1.2464   1.3747   1.6674   1.8890   1.9695   2.0084

          k = 0.5000 0.0962 0.0000 ( 59291 PWs)   bands (ev):

   -73.6501 -73.2625 -46.0390 -44.8972 -44.8652 -44.6563 -44.6239 -44.3531
   -21.1189 -20.9215 -20.7203 -20.1618 -19.8072 -19.4715 -19.3255 -19.1718
   -19.0193 -18.7812 -18.6362 -18.5503 -18.1458 -18.1016 -17.9207 -17.7255
   -12.3501 -12.1180 -12.0452 -11.9126 -11.6965 -11.6459 -11.5566 -10.9447
   -10.8906 -10.6243 -10.5271  -9.8613  -9.6962  -9.3392  -9.1130  -8.6787
    -8.6269  -8.5533  -8.3969  -8.3942  -8.1615  -8.1067  -8.0793  -8.0399
    -7.6878  -7.6257  -7.4984  -7.4742  -7.3555  -7.1744  -7.0709  -6.8667
    -6.6246  -6.4051  -6.2025  -6.1598  -5.9614  -5.9304  -5.7853  -5.7572
    -5.4544  -5.4033  -5.2016  -5.0570  -4.4518  -4.3772  -4.1253  -4.0063
    -3.9841  -3.8898  -3.7123  -3.0206  -2.4747  -2.4177  -1.5673  -1.5628
    -1.0722  -1.0071  -0.9639  -0.2008   0.4310   0.8467   1.0704   1.1862
     1.2623   1.3547   1.7306   1.8521   1.9684   2.0888

          k =-0.3333 0.3849 0.0000 ( 59291 PWs)   bands (ev):

   -73.6501 -73.2625 -46.0390 -44.8972 -44.8652 -44.6563 -44.6239 -44.3531
   -21.1197 -20.9194 -20.7217 -20.1616 -19.8090 -19.4698 -19.3216 -19.1749
   -19.0212 -18.7797 -18.6374 -18.5499 -18.1470 -18.0999 -17.9208 -17.7256
   -12.3511 -12.1157 -12.0473 -11.9113 -11.6897 -11.6540 -11.5560 -10.9448
   -10.8905 -10.6239 -10.5273  -9.8616  -9.6961  -9.3390  -9.1140  -8.6808
    -8.6258  -8.5546  -8.3933  -8.3887  -8.1626  -8.1116  -8.0717  -8.0485
    -7.6878  -7.6249  -7.5026  -7.4703  -7.3542  -7.1743  -7.0715  -6.8737
    -6.6234  -6.3981  -6.1893  -6.1616  -5.9700  -5.9296  -5.7855  -5.7671
    -5.4541  -5.3985  -5.2046  -5.0543  -4.4637  -4.3670  -4.1268  -4.0058
    -3.9890  -3.8693  -3.7256  -3.0207  -2.4744  -2.4175  -1.5677  -1.5632
    -1.0696  -1.0058  -0.9647  -0.1744   0.4010   0.8509   1.0731   1.1590
     1.2464   1.3747   1.6674   1.8890   1.9695   2.0084

          k =-0.1667-0.0962 0.0000 ( 59226 PWs)   bands (ev):

   -73.6501 -73.2625 -46.0390 -44.8972 -44.8651 -44.6563 -44.6239 -44.3531
   -21.3170 -20.5398 -20.3499 -20.3394 -19.9965 -19.9781 -19.8071 -18.7379
   -18.7211 -18.3845 -18.3719 -18.3558 -18.2660 -18.2627 -18.0806 -18.0706
   -12.5092 -12.5063 -12.4111 -11.5869 -11.5760 -11.4275 -11.4241 -10.9297
   -10.9251  -9.9325  -9.9280  -9.6783  -9.3776  -9.3752  -9.2324  -9.2303
    -9.0441  -9.0429  -8.9349  -8.3267  -8.3232  -7.9039  -7.9021  -7.8944
    -7.8470  -7.7729  -7.6174  -7.5814  -7.1522  -7.0841  -6.9619  -6.8923
    -6.8850  -6.8511  -6.5349  -6.5288  -6.2598  -5.3796  -5.3146  -5.1453
    -5.0675  -4.8455  -4.8057  -4.7616  -4.6147  -4.6072  -4.3766  -4.3303
    -4.0087  -3.9856  -3.8424  -3.0272  -2.4745  -2.4177  -1.5680  -1.5610
    -1.0613  -1.0041  -0.9656  -0.1029   0.4748   0.7793   1.1363   1.2158
     1.2686   1.3571   1.5933   1.6004   1.8069   2.0019

          k =-0.0000-0.1925 0.0000 ( 59226 PWs)   bands (ev):

   -73.6501 -73.2625 -46.0390 -44.8972 -44.8651 -44.6563 -44.6239 -44.3531
   -21.3171 -20.5363 -20.3489 -20.3470 -19.9877 -19.9816 -19.8095 -18.7316
   -18.7249 -18.3988 -18.3694 -18.3579 -18.2581 -18.2557 -18.0777 -18.0771
   -12.5142 -12.5017 -12.4108 -11.5831 -11.5806 -11.4320 -11.4180 -10.9288
   -10.9273  -9.9310  -9.9296  -9.6782  -9.3814  -9.3705  -9.2323  -9.2312
    -9.0435  -9.0434  -8.9353  -8.3254  -8.3242  -7.9045  -7.8991  -7.8841
    -7.8477  -7.7741  -7.6141  -7.6063  -7.1239  -7.0957  -6.9609  -6.8905
    -6.8880  -6.8566  -6.5325  -6.5308  -6.2601  -5.3608  -5.3241  -5.1456
    -5.0672  -4.8969  -4.7903  -4.7574  -4.6075  -4.5913  -4.3617  -4.3420
    -4.0094  -3.9854  -3.8462  -3.0273  -2.4741  -2.4175  -1.5684  -1.5613
    -1.0590  -1.0028  -0.9663  -0.0660   0.4372   0.7821   1.0930   1.1969
     1.2448   1.3864   1.5953   1.6133   1.7468   1.9971

          k = 0.5000-0.8660 0.0000 ( 59292 PWs)   bands (ev):

   -73.6501 -73.2625 -46.0390 -44.8972 -44.8651 -44.6563 -44.6238 -44.3532
   -21.0693 -21.0338 -20.4756 -20.4631 -19.4353 -19.4241 -19.4123 -19.4098
   -19.0051 -18.9802 -18.3512 -18.3261 -18.3135 -18.2951 -17.7987 -17.7872
   -12.0911 -12.0764 -12.0571 -12.0472 -11.8860 -11.8707 -11.3414 -11.3197
   -10.2430 -10.2330 -10.1378 -10.1354 -10.1280 -10.1275  -8.6348  -8.5668
    -8.5532  -8.5409  -8.5295  -8.5177  -7.8716  -7.8682  -7.8615  -7.8577
    -7.8226  -7.8221  -7.7919  -7.7499  -7.5036  -7.4773  -6.6176  -6.6065
    -6.3809  -6.3412  -6.3015  -6.2968  -6.1997  -6.1815  -5.7299  -5.6888
    -5.5584  -5.5335  -4.7896  -4.7361  -4.6885  -4.6613  -4.0483  -3.9906
    -3.9712  -3.8611  -3.7589  -3.0205  -2.4742  -2.4178  -1.5673  -1.5628
    -1.0723  -1.0071  -0.9638  -0.2017   0.4385   0.8525   1.0925   1.1227
     1.5288   1.5878   1.5909   1.6189   1.7804   1.8570

          k =-1.0000 0.0000 0.0000 ( 59292 PWs)   bands (ev):

   -73.6501 -73.2625 -46.0391 -44.8972 -44.8651 -44.6563 -44.6239 -44.3531
   -21.0802 -21.0209 -20.4726 -20.4695 -19.4334 -19.4232 -19.4107 -19.4101
   -19.0150 -18.9710 -18.3769 -18.3348 -18.2926 -18.2823 -17.7947 -17.7924
   -12.1126 -12.0779 -12.0451 -12.0340 -11.8808 -11.8759 -11.3517 -11.3104
   -10.2448 -10.2415 -10.1336 -10.1334 -10.1269 -10.1259  -8.6517  -8.5801
    -8.5608  -8.5268  -8.5198  -8.4938  -7.8752  -7.8727  -7.8628  -7.8613
    -7.8165  -7.8155  -7.7844  -7.7705  -7.5156  -7.4666  -6.6134  -6.6090
    -6.3752  -6.3314  -6.3058  -6.2940  -6.2101  -6.1730  -5.7378  -5.6802
    -5.5686  -5.5233  -4.8701  -4.7181  -4.6697  -4.6406  -4.0261  -3.9967
    -3.9055  -3.8748  -3.8138  -3.0215  -2.4746  -2.4165  -1.5683  -1.5642
    -1.0596  -1.0018  -0.9661  -0.0782   0.3076   0.8466   1.1117   1.1231
     1.2859   1.5312   1.5836   1.6219   1.6405   1.8845

 ------ SPIN DOWN ----------


          k = 0.1667 0.2887 0.0000 ( 59267 PWs)   bands (ev):

   -69.5551 -69.1475 -42.1645 -40.7607 -40.7378 -40.5064 -40.4841 -40.4077
   -21.2454 -20.6698 -20.6422 -20.1000 -20.0963 -19.5958 -19.5697 -19.0974
   -18.7034 -18.6802 -18.4524 -18.4500 -18.1924 -18.0864 -18.0704 -17.8464
   -12.4840 -12.2057 -12.2025 -11.8239 -11.8138 -11.6581 -11.1998 -11.1797
   -10.3907 -10.3672 -10.1223 -10.1080  -9.5920  -9.5839  -8.8284  -8.8244
    -8.8150  -8.7753  -8.7514  -8.5960  -8.1965  -8.0517  -7.9836  -7.8280
    -7.8268  -7.4401  -7.4327  -7.2602  -7.2487  -7.2116  -7.2014  -6.9582
    -6.9560  -6.5668  -6.5080  -6.1543  -6.1504  -5.8576  -5.4170  -5.2863
    -5.2534  -5.1990  -4.8957  -4.8901  -4.4933  -4.3442  -4.3258  -3.9657
    -1.5544  -0.5491  -0.4732  -0.4217   0.5905   0.8580   1.0686   1.1108
     1.2521   1.2752   1.4551   1.5045   1.5356   1.5823   1.7016   1.9435
     2.0759   2.1247   2.2290   2.2571   2.3176   2.3987

          k = 0.1667-0.4811 0.0000 ( 59291 PWs)   bands (ev):

   -69.5551 -69.1475 -42.1645 -40.7607 -40.7378 -40.5064 -40.4841 -40.4078
   -21.1151 -20.9114 -20.7192 -20.1581 -19.8023 -19.4643 -19.3162 -19.1707
   -19.0128 -18.7754 -18.6373 -18.5423 -18.1451 -18.0884 -17.9178 -17.7207
   -12.3482 -12.1139 -12.0439 -11.9064 -11.6858 -11.6525 -11.5523 -10.9412
   -10.8888 -10.6223 -10.5222  -9.8591  -9.6927  -9.3350  -9.1104  -8.6503
    -8.6230  -8.5512  -8.3891  -8.3601  -8.1601  -8.1006  -8.0670  -8.0454
    -7.6873  -7.6224  -7.4951  -7.4715  -7.3381  -7.1695  -7.0674  -6.8463
    -6.6205  -6.3752  -6.1665  -6.1572  -5.9529  -5.9272  -5.7824  -5.7336
    -5.4503  -5.3808  -5.1889  -5.0332  -4.4263  -4.3421  -4.0737  -3.7540
    -1.5474  -0.5495  -0.4701  -0.4202   0.5817   0.8292   1.0521   1.0775
     1.1459   1.1985   1.3179   1.3589   1.6419   1.8174   1.9397   2.0865
     2.1245   2.2196   2.2372   2.2575   2.3046   2.3348

          k = 0.1667-0.0962 0.0000 ( 59226 PWs)   bands (ev):

   -69.5551 -69.1475 -42.1645 -40.7606 -40.7378 -40.5064 -40.4841 -40.4077
   -21.3118 -20.5338 -20.3451 -20.3352 -19.9901 -19.9739 -19.8032 -18.7306
   -18.7163 -18.3762 -18.3668 -18.3512 -18.2611 -18.2590 -18.0760 -18.0668
   -12.5060 -12.5033 -12.4081 -11.5834 -11.5736 -11.4243 -11.4213 -10.9262
   -10.9222  -9.9290  -9.9254  -9.6746  -9.3740  -9.3724  -9.2288  -9.2266
    -9.0414  -9.0397  -8.9086  -8.3229  -8.3194  -7.9003  -7.8990  -7.8630
    -7.8425  -7.7700  -7.5960  -7.5691  -7.1189  -7.0724  -6.9586  -6.8890
    -6.8826  -6.8390  -6.5315  -6.5261  -6.2567  -5.3371  -5.2993  -5.1419
    -5.0641  -4.7997  -4.7846  -4.7390  -4.5942  -4.5926  -4.3415  -4.3175
    -1.5615  -0.5490  -0.4766  -0.4231   0.6037   0.8131   1.0684   1.1351
     1.2561   1.3334   1.3827   1.5412   1.6069   1.6372   1.7936   1.9372
     2.0406   2.0679   2.1124   2.2680   2.3018   2.3536

          k =-0.5000-0.8660 0.0000 ( 59292 PWs)   bands (ev):

   -69.5551 -69.1475 -42.1645 -40.7607 -40.7378 -40.5064 -40.4841 -40.4078
   -21.0617 -21.0310 -20.4704 -20.4589 -19.4275 -19.4186 -19.4081 -19.4059
   -18.9980 -18.9778 -18.3408 -18.3200 -18.3097 -18.2941 -17.7930 -17.7828
   -12.0861 -12.0723 -12.0550 -12.0459 -11.8825 -11.8686 -11.3373 -11.3174
   -10.2386 -10.2304 -10.1340 -10.1320 -10.1250 -10.1247  -8.5910  -8.5611
    -8.5497  -8.5386  -8.5283  -8.5097  -7.8674  -7.8648  -7.8585  -7.8550
    -7.8190  -7.8166  -7.7695  -7.7378  -7.4994  -7.4758  -6.6133  -6.6040
    -6.3376  -6.3166  -6.2877  -6.2848  -6.1954  -6.1790  -5.7042  -5.6768
    -5.5535  -5.5319  -4.7377  -4.7087  -4.6761  -4.6578  -3.8775  -3.8526
    -1.5356  -0.5484  -0.4730  -0.4221   0.4020   0.8537   1.0482   1.0624
     1.1812   1.4390   1.5038   1.5449   1.6145   1.6545   1.7278   1.9280
     1.9379   2.2322   2.2408   2.2590   2.3085   2.3374

          k =-0.1667 0.2887 0.0000 ( 59267 PWs)   bands (ev):

   -69.5551 -69.1475 -42.1645 -40.7607 -40.7378 -40.5064 -40.4841 -40.4077
   -21.2454 -20.6698 -20.6423 -20.1000 -20.0963 -19.5958 -19.5697 -19.0974
   -18.7033 -18.6803 -18.4524 -18.4500 -18.1924 -18.0863 -18.0705 -17.8464
   -12.4840 -12.2057 -12.2025 -11.8239 -11.8138 -11.6581 -11.1998 -11.1797
   -10.3907 -10.3672 -10.1223 -10.1080  -9.5920  -9.5839  -8.8283  -8.8243
    -8.8150  -8.7753  -8.7515  -8.5960  -8.1966  -8.0517  -7.9836  -7.8280
    -7.8267  -7.4401  -7.4327  -7.2602  -7.2487  -7.2115  -7.2014  -6.9583
    -6.9561  -6.5667  -6.5080  -6.1542  -6.1504  -5.8576  -5.4171  -5.2863
    -5.2534  -5.1989  -4.8957  -4.8901  -4.4933  -4.3442  -4.3258  -3.9657
    -1.5544  -0.5491  -0.4732  -0.4217   0.5905   0.8581   1.0686   1.1109
     1.2521   1.2753   1.4551   1.5045   1.5357   1.5823   1.7016   1.9435
     2.0759   2.1248   2.2294   2.2572   2.3180   2.4012

          k = 0.3333 0.0000 0.0000 ( 59267 PWs)   bands (ev):

   -69.5551 -69.1475 -42.1645 -40.7606 -40.7378 -40.5064 -40.4841 -40.4077
   -21.2451 -20.6819 -20.6301 -20.1053 -20.0899 -19.6084 -19.5585 -19.0989
   -18.7106 -18.6698 -18.4586 -18.4447 -18.1900 -18.0993 -18.0615 -17.8458
   -12.4835 -12.2090 -12.1992 -11.8289 -11.8105 -11.6565 -11.2084 -11.1714
   -10.3902 -10.3670 -10.1281 -10.1025  -9.5947  -9.5804  -8.8322  -8.8231
    -8.8112  -8.7858  -8.7415  -8.5968  -8.1976  -8.0723  -7.9629  -7.8291
    -7.8245  -7.4424  -7.4298  -7.2710  -7.2351  -7.2165  -7.1966  -6.9630
    -6.9520  -6.5884  -6.4901  -6.1558  -6.1484  -5.8617  -5.4168  -5.2911
    -5.2413  -5.1993  -4.9108  -4.8769  -4.4887  -4.3608  -4.3158  -3.9653
    -1.5469  -0.5479  -0.4753  -0.4230   0.4689   0.8080   1.0672   1.1919
     1.3055   1.4353   1.4529   1.5064   1.5505   1.5813   1.6098   1.9298
     2.0526   2.1864   2.2406   2.2779   2.3105   2.4451

          k =-0.1667-0.4811 0.0000 ( 59291 PWs)   bands (ev):

   -69.5551 -69.1475 -42.1645 -40.7607 -40.7378 -40.5064 -40.4841 -40.4078
   -21.1151 -20.9114 -20.7192 -20.1581 -19.8023 -19.4643 -19.3161 -19.1707
   -19.0128 -18.7754 -18.6373 -18.5423 -18.1451 -18.0884 -17.9178 -17.7207
   -12.3482 -12.1139 -12.0439 -11.9064 -11.6858 -11.6525 -11.5523 -10.9412
   -10.8888 -10.6223 -10.5221  -9.8590  -9.6927  -9.3351  -9.1105  -8.6503
    -8.6229  -8.5512  -8.3891  -8.3601  -8.1600  -8.1006  -8.0671  -8.0454
    -7.6873  -7.6225  -7.4950  -7.4715  -7.3381  -7.1695  -7.0674  -6.8463
    -6.6206  -6.3753  -6.1666  -6.1573  -5.9529  -5.9272  -5.7824  -5.7336
    -5.4504  -5.3808  -5.1889  -5.0332  -4.4263  -4.3421  -4.0737  -3.7540
    -1.5474  -0.5495  -0.4701  -0.4202   0.5817   0.8292   1.0521   1.0775
     1.1459   1.1985   1.3179   1.3589   1.6419   1.8174   1.9398   2.0865
     2.1245   2.2196   2.2371   2.2575   2.3045   2.3349

          k = 0.5000-0.0962 0.0000 ( 59291 PWs)   bands (ev):

   -69.5551 -69.1475 -42.1645 -40.7606 -40.7378 -40.5064 -40.4841 -40.4077
   -21.1133 -20.9162 -20.7161 -20.1569 -19.8022 -19.4660 -19.3194 -19.1676
   -19.0136 -18.7764 -18.6305 -18.5459 -18.1384 -18.0978 -17.9163 -17.7203
   -12.3472 -12.1143 -12.0427 -11.9092 -11.6924 -11.6442 -11.5536 -10.9413
   -10.8875 -10.6212 -10.5239  -9.8574  -9.6932  -9.3357  -9.1101  -8.6459
    -8.6233  -8.5500  -8.3918  -8.3730  -8.1587  -8.0925  -8.0750  -8.0384
    -7.6847  -7.6228  -7.4946  -7.4721  -7.3348  -7.1706  -7.0677  -6.8458
    -6.6207  -6.3801  -6.1739  -6.1567  -5.9471  -5.9267  -5.7820  -5.7342
    -5.4512  -5.3826  -5.1758  -5.0395  -4.4150  -4.3556  -4.0731  -3.7539
    -1.5357  -0.5485  -0.4731  -0.4222   0.4056   0.8245   1.0296   1.0712
     1.2058   1.3197   1.3717   1.4212   1.6530   1.8138   1.9607   2.0302
     2.1361   2.1795   2.2008   2.2748   2.2970   2.3857

          k =-0.3333-0.3849 0.0000 ( 59291 PWs)   bands (ev):

   -69.5551 -69.1475 -42.1645 -40.7607 -40.7378 -40.5064 -40.4841 -40.4077
   -21.1139 -20.9145 -20.7173 -20.1567 -19.8037 -19.4646 -19.3160 -19.1702
   -19.0153 -18.7752 -18.6315 -18.5455 -18.1396 -18.0962 -17.9163 -17.7205
   -12.3478 -12.1127 -12.0443 -11.9084 -11.6859 -11.6517 -11.5530 -10.9413
   -10.8872 -10.6208 -10.5243  -9.8580  -9.6932  -9.3352  -9.1107  -8.6473
    -8.6224  -8.5511  -8.3901  -8.3682  -8.1598  -8.0958  -8.0674  -8.0464
    -7.6849  -7.6219  -7.4987  -7.4684  -7.3341  -7.1707  -7.0682  -6.8501
    -6.6193  -6.3760  -6.1658  -6.1580  -5.9526  -5.9260  -5.7822  -5.7394
    -5.4510  -5.3798  -5.1770  -5.0391  -4.4170  -4.3535  -4.0730  -3.7539
    -1.5396  -0.5490  -0.4720  -0.4216   0.4551   0.8438   1.0429   1.0643
     1.1878   1.2422   1.3157   1.4331   1.6691   1.9228   1.9756   2.0240
     2.0690   2.1844   2.2003   2.2618   2.3073   2.3680

          k = 0.5000 0.0962 0.0000 ( 59291 PWs)   bands (ev):

   -69.5551 -69.1475 -42.1645 -40.7606 -40.7378 -40.5064 -40.4841 -40.4077
   -21.1133 -20.9162 -20.7161 -20.1569 -19.8022 -19.4660 -19.3194 -19.1676
   -19.0136 -18.7764 -18.6305 -18.5459 -18.1384 -18.0978 -17.9163 -17.7203
   -12.3472 -12.1143 -12.0426 -11.9093 -11.6924 -11.6442 -11.5537 -10.9413
   -10.8875 -10.6212 -10.5239  -9.8575  -9.6932  -9.3356  -9.1100  -8.6459
    -8.6233  -8.5500  -8.3918  -8.3730  -8.1588  -8.0925  -8.0749  -8.0383
    -7.6848  -7.6228  -7.4947  -7.4722  -7.3348  -7.1706  -7.0677  -6.8458
    -6.6206  -6.3801  -6.1739  -6.1566  -5.9471  -5.9266  -5.7821  -5.7342
    -5.4513  -5.3826  -5.1758  -5.0394  -4.4150  -4.3556  -4.0731  -3.7539
    -1.5357  -0.5485  -0.4731  -0.4222   0.4056   0.8245   1.0296   1.0712
     1.2058   1.3197   1.3717   1.4211   1.6530   1.8138   1.9607   2.0303
     2.1360   2.1795   2.2008   2.2746   2.2973   2.3852

          k =-0.3333 0.3849 0.0000 ( 59291 PWs)   bands (ev):

   -69.5551 -69.1475 -42.1645 -40.7607 -40.7378 -40.5064 -40.4841 -40.4077
   -21.1139 -20.9145 -20.7173 -20.1567 -19.8037 -19.4646 -19.3160 -19.1702
   -19.0153 -18.7752 -18.6315 -18.5455 -18.1396 -18.0962 -17.9164 -17.7205
   -12.3478 -12.1127 -12.0443 -11.9084 -11.6859 -11.6517 -11.5530 -10.9413
   -10.8872 -10.6208 -10.5243  -9.8580  -9.6932  -9.3352  -9.1107  -8.6473
    -8.6225  -8.5510  -8.3901  -8.3682  -8.1599  -8.0958  -8.0674  -8.0465
    -7.6848  -7.6218  -7.4988  -7.4684  -7.3341  -7.1706  -7.0682  -6.8501
    -6.6194  -6.3760  -6.1658  -6.1581  -5.9526  -5.9261  -5.7822  -5.7395
    -5.4509  -5.3798  -5.1770  -5.0391  -4.4170  -4.3535  -4.0730  -3.7539
    -1.5396  -0.5490  -0.4720  -0.4216   0.4551   0.8438   1.0429   1.0643
     1.1878   1.2422   1.3157   1.4331   1.6691   1.9229   1.9756   2.0240
     2.0690   2.1843   2.2004   2.2618   2.3073   2.3679

          k =-0.1667-0.0962 0.0000 ( 59226 PWs)   bands (ev):

   -69.5551 -69.1475 -42.1645 -40.7606 -40.7378 -40.5064 -40.4841 -40.4077
   -21.3118 -20.5338 -20.3451 -20.3352 -19.9901 -19.9739 -19.8032 -18.7306
   -18.7163 -18.3762 -18.3668 -18.3512 -18.2611 -18.2590 -18.0760 -18.0668
   -12.5060 -12.5033 -12.4081 -11.5833 -11.5735 -11.4243 -11.4213 -10.9262
   -10.9222  -9.9290  -9.9254  -9.6745  -9.3739  -9.3724  -9.2288  -9.2266
    -9.0414  -9.0397  -8.9086  -8.3229  -8.3195  -7.9003  -7.8990  -7.8630
    -7.8424  -7.7700  -7.5959  -7.5691  -7.1189  -7.0724  -6.9586  -6.8890
    -6.8826  -6.8390  -6.5314  -6.5261  -6.2568  -5.3371  -5.2993  -5.1418
    -5.0642  -4.7997  -4.7846  -4.7391  -4.5941  -4.5927  -4.3415  -4.3175
    -1.5615  -0.5490  -0.4766  -0.4231   0.6036   0.8131   1.0684   1.1351
     1.2562   1.3334   1.3827   1.5413   1.6069   1.6373   1.7936   1.9371
     2.0406   2.0680   2.1123   2.2680   2.3018   2.3534

          k =-0.0000-0.1925 0.0000 ( 59226 PWs)   bands (ev):

   -69.5551 -69.1475 -42.1645 -40.7606 -40.7378 -40.5064 -40.4841 -40.4077
   -21.3119 -20.5308 -20.3439 -20.3420 -19.9822 -19.9772 -19.8052 -18.7249
   -18.7198 -18.3890 -18.3644 -18.3527 -18.2554 -18.2519 -18.0733 -18.0724
   -12.5094 -12.5001 -12.4079 -11.5801 -11.5778 -11.4274 -11.4161 -10.9255
   -10.9241  -9.9274  -9.9268  -9.6747  -9.3782  -9.3676  -9.2285  -9.2276
    -9.0407  -9.0403  -8.9089  -8.3214  -8.3205  -7.9013  -7.8964  -7.8565
    -7.8421  -7.7710  -7.5924  -7.5876  -7.0981  -7.0818  -6.9576  -6.8874
    -6.8852  -6.8432  -6.5294  -6.5279  -6.2569  -5.3238  -5.3082  -5.1422
    -5.0638  -4.8285  -4.7733  -4.7385  -4.5916  -4.5794  -4.3339  -4.3284
    -1.5652  -0.5495  -0.4756  -0.4225   0.6837   0.8408   1.0695   1.1247
     1.1842   1.2533   1.4207   1.5255   1.5635   1.6545   1.8408   1.9107
     1.9585   2.0570   2.1580   2.2707   2.3103   2.3528

          k = 0.5000-0.8660 0.0000 ( 59292 PWs)   bands (ev):

   -69.5551 -69.1475 -42.1645 -40.7607 -40.7378 -40.5064 -40.4841 -40.4078
   -21.0617 -21.0310 -20.4704 -20.4589 -19.4275 -19.4186 -19.4081 -19.4059
   -18.9979 -18.9779 -18.3407 -18.3202 -18.3095 -18.2942 -17.7930 -17.7828
   -12.0860 -12.0724 -12.0549 -12.0460 -11.8825 -11.8686 -11.3373 -11.3174
   -10.2386 -10.2305 -10.1340 -10.1320 -10.1250 -10.1247  -8.5910  -8.5610
    -8.5497  -8.5385  -8.5284  -8.5097  -7.8674  -7.8647  -7.8585  -7.8550
    -7.8191  -7.8167  -7.7695  -7.7378  -7.4995  -7.4758  -6.6132  -6.6039
    -6.3376  -6.3166  -6.2877  -6.2848  -6.1952  -6.1790  -5.7042  -5.6768
    -5.5536  -5.5320  -4.7376  -4.7088  -4.6759  -4.6579  -3.8775  -3.8526
    -1.5356  -0.5484  -0.4730  -0.4221   0.4020   0.8537   1.0482   1.0625
     1.1812   1.4391   1.5038   1.5447   1.6145   1.6545   1.7279   1.9280
     1.9379   2.2323   2.2406   2.2591   2.3085   2.3371

          k =-1.0000 0.0000 0.0000 ( 59292 PWs)   bands (ev):

   -69.5551 -69.1475 -42.1645 -40.7607 -40.7378 -40.5064 -40.4841 -40.4078
   -21.0723 -21.0186 -20.4676 -20.4647 -19.4258 -19.4179 -19.4069 -19.4060
   -19.0073 -18.9691 -18.3649 -18.3289 -18.2897 -18.2818 -17.7894 -17.7874
   -12.1046 -12.0760 -12.0435 -12.0328 -11.8780 -11.8736 -11.3476 -11.3084
   -10.2400 -10.2380 -10.1302 -10.1297 -10.1243 -10.1237  -8.6071  -8.5747
    -8.5565  -8.5252  -8.5191  -8.4887  -7.8701  -7.8688  -7.8599  -7.8584
    -7.8123  -7.8123  -7.7621  -7.7536  -7.5110  -7.4653  -6.6097  -6.6063
    -6.3332  -6.3116  -6.2903  -6.2830  -6.2053  -6.1709  -5.7140  -5.6679
    -5.5633  -5.5220  -4.7868  -4.6993  -4.6597  -4.6392  -3.8684  -3.8612
    -1.5512  -0.5493  -0.4692  -0.4194   0.6615   0.8235   1.0645   1.0836
     1.0996   1.2894   1.3994   1.5104   1.6153   1.6320   1.6398   1.8513
     2.0485   2.2663   2.2681   2.2863   2.3125   2.3452

     the Fermi energy is    -0.8246 ev

!    total energy              =   -1133.63690197 Ry

     total all-electron energy =     -6753.312605 Ry
     estimated scf accuracy    <       0.00000007 Ry
     smearing contrib. (-TS)   =      -0.00000000 Ry
     internal energy E=F+TS    =   -1133.63690197 Ry

     The total energy is F=E-TS. E is the sum of the following terms:
     one-electron contribution =   -4007.04236003 Ry
     hartree contribution      =    2031.20782662 Ry
     xc contribution           =    -186.21175149 Ry
     ewald contribution        =    1387.79419017 Ry
     DFT-D3 Dispersion         =      -0.12225787 Ry
     one-center paw contrib.   =    -359.26254937 Ry

     total magnetization       =    10.00 Bohr mag/cell
     absolute magnetization    =    10.02 Bohr mag/cell

     convergence has been achieved in  18 iterations

     Writing output data file ./mytmp/Crdimer0.1-0.4.save/
 
     init_run     :     18.32s CPU     19.33s WALL (       1 calls)
     electrons    :    606.06s CPU    650.38s WALL (       1 calls)

     Called by init_run:
     wfcinit      :     13.60s CPU     14.15s WALL (       1 calls)
     potinit      :      1.49s CPU      1.56s WALL (       1 calls)
     hinit0       :      1.52s CPU      1.64s WALL (       1 calls)

     Called by electrons:
     c_bands      :    481.91s CPU    514.67s WALL (      18 calls)
     sum_band     :     95.91s CPU    103.14s WALL (      18 calls)
     v_of_rho     :      5.81s CPU      6.24s WALL (      19 calls)
     newd         :     11.92s CPU     15.81s WALL (      19 calls)
     PAW_pot      :      9.34s CPU      9.45s WALL (      19 calls)
     mix_rho      :      1.32s CPU      1.37s WALL (      18 calls)

     Called by c_bands:
     init_us_2    :      6.43s CPU      6.52s WALL (    1110 calls)
     cegterg      :    466.04s CPU    498.65s WALL (     540 calls)

     Called by *egterg:
     cdiaghg      :     31.74s CPU     50.53s WALL (    3580 calls)
     h_psi        :    295.74s CPU    308.07s WALL (    3610 calls)
     s_psi        :     33.97s CPU     34.15s WALL (    3610 calls)
     g_psi        :      0.84s CPU      0.87s WALL (    3040 calls)

     Called by h_psi:
     h_psi:calbec :     34.78s CPU     35.60s WALL (    3610 calls)
     vloc_psi     :    223.87s CPU    235.07s WALL (    3610 calls)
     add_vuspsi   :     34.54s CPU     34.82s WALL (    3610 calls)

     General routines
     calbec       :     46.78s CPU     47.86s WALL (    4150 calls)
     fft          :      5.18s CPU      6.04s WALL (     469 calls)
     ffts         :      0.14s CPU      0.15s WALL (      74 calls)
     fftw         :    233.08s CPU    244.61s WALL (  307696 calls)
     interpolate  :      0.52s CPU      0.55s WALL (      38 calls)
 
     Parallel routines
     fft_scatt_xy :     36.93s CPU     38.52s WALL (  308239 calls)
     fft_scatt_yz :     92.46s CPU     98.39s WALL (  308239 calls)
 
     PWSCF        :  10m26.35s CPU  11m13.93s WALL

 
   This run was terminated on:  10:48:11  31Mar2021            

=------------------------------------------------------------------------------=
   JOB DONE.
=------------------------------------------------------------------------------=
