
     Program PWSCF v.6.7MaX starts on 31Mar2021 at 10:48:11 

     This program is part of the open-source Quantum ESPRESSO suite
     for quantum simulation of materials; please cite
         "P. Giannozzi et al., J. Phys.:Condens. Matter 21 395502 (2009);
         "P. Giannozzi et al., J. Phys.:Condens. Matter 29 465901 (2017);
          URL http://www.quantum-espresso.org", 
     in publications or presentations arising from this work. More details at
     http://www.quantum-espresso.org/quote

     Parallel version (MPI), running on    48 processors

     MPI processes distributed on     1 nodes
     R & G space division:  proc/nbgrp/npool/nimage =      48
     Reading input from Crdimer0.1-0.5.scf.in

     Current dimensions of program PWSCF are:
     Max number of different atomic species (ntypx) = 10
     Max number of k-points (npk) =  40000
     Max angular momentum in pseudopotentials (lmaxx) =  3
     file N.pbe-n-kjpaw_psl.1.0.0.UPF: wavefunction(s)  2S renormalized
     file Cr.pbe-spn-kjpaw_psl.1.0.0.UPF: wavefunction(s)  3S 3P 3D renormalized
     file Cr.pbe-spn-kjpaw_psl.1.0.0.UPF: wavefunction(s)  3S 3P 3D renormalized

     --------------------------------------------
     Parameters for DFT-D3 Dispersion Correction:
     --------------------------------------------
       Reference C6 values for interpolation: 

         atom   Coordination number   C6
         B          0.000           214.36
         B          0.971           150.74
         B          1.944           106.23
         B          2.913            62.89
         B          4.586            56.06
         N          0.000            50.54
         N          0.994            44.25
         N          2.014            39.35
         N          2.990            31.16
         Cr1        0.000          1381.48
         Cr1        1.827           571.38
         Cr1       10.619           306.69
         Cr2        0.000          1381.48
         Cr2        1.827           571.38
         Cr2       10.619           306.69

       Values used:

         atom   Coordination number  R0_AB[au]  C6      C8
         B          3.336            3.039     62.89   2506.00
         B          3.340            3.039     62.89   2505.88
         B          3.335            3.039     62.89   2506.01
         B          3.335            3.039     62.89   2506.01
         B          3.340            3.039     62.89   2505.88
         B          3.336            3.039     62.89   2506.00
         N          3.134            2.478     31.22    688.70
         N          3.159            2.478     31.21    688.48
         N          3.134            2.478     31.22    688.69
         N          3.134            2.478     31.22    688.70
         N          3.146            2.478     31.21    688.59
         N          3.135            2.478     31.22    688.69
         N          3.138            2.478     31.22    688.66
         N          3.135            2.478     31.22    688.68
         N          3.134            2.478     31.22    688.70
         B          3.349            3.039     62.88   2505.66
         B          3.340            3.039     62.89   2505.88
         B          3.336            3.039     62.89   2506.00
         B          3.340            3.039     62.89   2505.88
         B          3.336            3.039     62.89   2506.00
         B          3.349            3.039     62.88   2505.66
         N          3.138            2.478     31.22    688.66
         B          3.336            3.039     62.89   2506.00
         B          3.388            3.039     62.85   2504.47
         B          3.335            3.039     62.89   2506.01
         N          3.135            2.478     31.22    688.69
         N          3.159            2.478     31.21    688.48
         N          3.135            2.478     31.22    688.69
         N          3.135            2.478     31.22    688.69
         N          3.134            2.478     31.22    688.69
         N          3.134            2.478     31.22    688.70
         B          3.335            3.039     62.89   2506.01
         Cr1        1.095            3.252    610.22  56316.61
         Cr2        1.095            3.252    610.22  56316.61

         Molecular C6 ( Ry / a.u.^6 ) =     68873.65


     Subspace diagonalization in iterative solution of the eigenvalue problem:
     one sub-group per band group will be used
     scalapack distributed-memory algorithm (size of sub-group:  6*  6 procs)

 
     Parallelization info
     --------------------
     sticks:   dense  smooth     PW     G-vecs:    dense   smooth      PW
     Min         235      98     26                36277     9874    1408
     Max         236      99     27                36282     9883    1425
     Sum       11311    4741   1285              1741401   474235   68095
 


     bravais-lattice index     =            4
     lattice parameter (alat)  =      18.9275  a.u.
     unit-cell volume          =   10553.3021 (a.u.)^3
     number of atoms/cell      =           34
     number of atomic types    =            4
     number of electrons       =       156.00
     number of Kohn-Sham states=           94
     kinetic-energy cutoff     =      48.0000  Ry
     charge density cutoff     =     457.0000  Ry
     scf convergence threshold =      1.0E-07
     mixing beta               =       0.5000
     number of iterations used =            8  plain     mixing
     Exchange-correlation= SLA  PW   PBX  PBC
                           (   1   4   3   4   0   0   0)

     celldm(1)=  18.927497  celldm(2)=   0.000000  celldm(3)=   1.797125
     celldm(4)=   0.000000  celldm(5)=   0.000000  celldm(6)=   0.000000

     crystal axes: (cart. coord. in units of alat)
               a(1) = (   1.000000   0.000000   0.000000 )  
               a(2) = (  -0.500000   0.866025   0.000000 )  
               a(3) = (   0.000000   0.000000   1.797125 )  

     reciprocal axes: (cart. coord. in units 2 pi/alat)
               b(1) = (  1.000000  0.577350  0.000000 )  
               b(2) = (  0.000000  1.154701  0.000000 )  
               b(3) = (  0.000000  0.000000  0.556444 )  


     PseudoPot. # 1 for B  read from file:
     /home/sf05/q-e-qe-6.7MaX-Release/pseudo/B.pbe-n-kjpaw_psl.1.0.0.UPF
     MD5 check sum: d9c678ba5d3b2fd7b74e61139c9288d8
     Pseudo is Projector augmented-wave + core cor, Zval =  3.0
     Generated using "atomic" code by A. Dal Corso  v.5.1.2
     Shape of augmentation charge: PSQ
     Using radial grid of 1059 points,  4 beta functions with: 
                l(1) =   0
                l(2) =   0
                l(3) =   1
                l(4) =   1
     Q(r) pseudized with 0 coefficients 


     PseudoPot. # 2 for N  read from file:
     /home/sf05/q-e-qe-6.7MaX-Release/pseudo/N.pbe-n-kjpaw_psl.1.0.0.UPF
     MD5 check sum: e0e4e94a9c4025c5b51bd7d8793849bd
     Pseudo is Projector augmented-wave + core cor, Zval =  5.0
     Generated using "atomic" code by A. Dal Corso  v.5.1.2
     Shape of augmentation charge: PSQ
     Using radial grid of 1085 points,  4 beta functions with: 
                l(1) =   0
                l(2) =   0
                l(3) =   1
                l(4) =   1
     Q(r) pseudized with 0 coefficients 


     PseudoPot. # 3 for Cr read from file:
     /home/sf05/q-e-qe-6.7MaX-Release/pseudo/Cr.pbe-spn-kjpaw_psl.1.0.0.UPF
     MD5 check sum: 198f1a2427a48552563eee314eba32ba
     Pseudo is Projector augmented-wave + core cor, Zval = 14.0
     Generated using &quot;atomic&quot; code by A. Dal Corso  v.6.3
     Shape of augmentation charge: PSQ
     Using radial grid of 1183 points,  6 beta functions with: 
                l(1) =   0
                l(2) =   0
                l(3) =   1
                l(4) =   1
                l(5) =   2
                l(6) =   2
     Q(r) pseudized with 0 coefficients 


     PseudoPot. # 4 for Cr read from file:
     /home/sf05/q-e-qe-6.7MaX-Release/pseudo/Cr.pbe-spn-kjpaw_psl.1.0.0.UPF
     MD5 check sum: 198f1a2427a48552563eee314eba32ba
     Pseudo is Projector augmented-wave + core cor, Zval = 14.0
     Generated using &quot;atomic&quot; code by A. Dal Corso  v.6.3
     Shape of augmentation charge: PSQ
     Using radial grid of 1183 points,  6 beta functions with: 
                l(1) =   0
                l(2) =   0
                l(3) =   1
                l(4) =   1
                l(5) =   2
                l(6) =   2
     Q(r) pseudized with 0 coefficients 


     atomic species   valence    mass     pseudopotential
        B              3.00    10.81100     B ( 1.00)
        N              5.00    14.00674     N ( 1.00)
        Cr1           14.00    51.99610     Cr( 1.00)
        Cr2           14.00    51.99610     Cr( 1.00)

     Starting magnetic structure 
     atomic species   magnetization
        B            0.000
        N            0.000
        Cr1          1.000
        Cr2          1.000

     No symmetry found



   Cartesian axes

     site n.     atom                  positions (alat units)
         1           B   tau(   1) = (  -0.1250000   0.2165064   0.8985623  )
         2           B   tau(   2) = (   0.3750000   0.6495191   0.8985623  )
         3           B   tau(   3) = (   0.2500000   0.0000000   0.8985623  )
         4           B   tau(   4) = (   0.7500000   0.0000000   0.8985623  )
         5           B   tau(   5) = (   0.1250000   0.2165064   0.8985623  )
         6           B   tau(   6) = (  -0.3750000   0.6495191   0.8985623  )
         7           N   tau(   7) = (   0.7500005   0.2886748   0.8985623  )
         8           N   tau(   8) = (   0.3750005   0.5051812   0.8985623  )
         9           N   tau(   9) = (   0.3750005   0.0721685   0.8985623  )
        10           N   tau(  10) = (   0.6250005   0.0721685   0.8985623  )
        11           N   tau(  11) = (   0.2500005   0.2886748   0.8985623  )
        12           N   tau(  12) = (   0.6250005   0.5051812   0.8985623  )
        13           N   tau(  13) = (   0.0000005   0.2886748   0.8985623  )
        14           N   tau(  14) = (   0.2500005   0.7216875   0.8985623  )
        15           N   tau(  15) = (  -0.2499995   0.7216875   0.8985623  )
        16           B   tau(  16) = (   0.0000000   0.4330127   0.8985623  )
        17           B   tau(  17) = (   0.1250000   0.6495191   0.8985623  )
        18           B   tau(  18) = (  -0.1250000   0.6495191   0.8985623  )
        19           B   tau(  19) = (   0.3750000   0.2165064   0.8985623  )
        20           B   tau(  20) = (   0.6250000   0.2165064   0.8985623  )
        21           B   tau(  21) = (   0.5000000   0.4330127   0.8985623  )
        22           N   tau(  22) = (   0.5000005   0.2886748   0.8985623  )
        23           B   tau(  23) = (  -0.2500000   0.4330127   0.8985623  )
        24           B   tau(  24) = (   0.2500000   0.4330127   0.8985623  )
        25           B   tau(  25) = (   0.5000000   0.0000000   0.8985623  )
        26           N   tau(  26) = (  -0.1249995   0.5051812   0.8985623  )
        27           N   tau(  27) = (   0.1250005   0.5051812   0.8985623  )
        28           N   tau(  28) = (   0.0000005   0.7216875   0.8985623  )
        29           N   tau(  29) = (   0.5000005   0.7216875   0.8985623  )
        30           N   tau(  30) = (   0.1250005   0.0721685   0.8985623  )
        31           N   tau(  31) = (   0.8750005   0.0721685   0.8985623  )
        32           B   tau(  32) = (   0.0000000   0.0000000   0.8985623  )
        33           Cr1 tau(  33) = (   0.3500000   0.4330127   1.2040735  )
        34           Cr2 tau(  34) = (   0.1500000   0.4330127   1.2040735  )

     number of k points=    15  Gaussian smearing, width (Ry)=  0.0000
                       cart. coord. in units 2pi/alat
        k(    1) = (   0.1666667   0.2886751   0.0000000), wk =   0.0740741
        k(    2) = (   0.1666667  -0.4811252   0.0000000), wk =   0.0740741
        k(    3) = (   0.1666667  -0.0962250   0.0000000), wk =   0.0740741
        k(    4) = (  -0.5000000  -0.8660254   0.0000000), wk =   0.0370370
        k(    5) = (  -0.1666667   0.2886751   0.0000000), wk =   0.0740741
        k(    6) = (   0.3333333   0.0000000   0.0000000), wk =   0.0740741
        k(    7) = (  -0.1666667  -0.4811252   0.0000000), wk =   0.0740741
        k(    8) = (   0.5000000  -0.0962250   0.0000000), wk =   0.0740741
        k(    9) = (  -0.3333333  -0.3849002   0.0000000), wk =   0.0740741
        k(   10) = (   0.5000000   0.0962250   0.0000000), wk =   0.0740741
        k(   11) = (  -0.3333333   0.3849002   0.0000000), wk =   0.0740741
        k(   12) = (  -0.1666667  -0.0962250   0.0000000), wk =   0.0740741
        k(   13) = (  -0.0000000  -0.1924501   0.0000000), wk =   0.0740741
        k(   14) = (   0.5000000  -0.8660254   0.0000000), wk =   0.0370370
        k(   15) = (  -1.0000000   0.0000000   0.0000000), wk =   0.0370370

     Dense  grid:  1741401 G-vectors     FFT dimensions: ( 135, 135, 240)

     Smooth grid:   474235 G-vectors     FFT dimensions: (  90,  90, 160)

     Estimated max dynamical RAM per process >     218.62 MB

     Estimated total dynamical RAM >      10.25 GB
     Generating pointlists ...
     new r_m :   0.0595 (alat units)  1.1269 (a.u.) for type    1
     new r_m :   0.0595 (alat units)  1.1269 (a.u.) for type    2
     new r_m :   0.0825 (alat units)  1.5615 (a.u.) for type    3
     new r_m :   0.0825 (alat units)  1.5615 (a.u.) for type    4

     Initial potential from superposition of free atoms

     starting charge  155.99382, renormalised to  156.00000

     negative rho (up, down):  6.876E-03 4.655E-04
     Starting wfcs are  148 randomized atomic wfcs
     Checking if some PAW data can be deallocated... 

     total cpu time spent up to now is       19.7 secs

     Self-consistent Calculation

     iteration #  1     ecut=    48.00 Ry     beta= 0.50
     Davidson diagonalization with overlap
     ethr =  1.00E-02,  avg # of iterations =  4.9

     negative rho (up, down):  5.301E-01 2.879E-03

     total cpu time spent up to now is       63.3 secs

     total energy              =   -1128.27416077 Ry
     estimated scf accuracy    <      32.10225858 Ry

     total magnetization       =    12.00 Bohr mag/cell
     absolute magnetization    =    16.10 Bohr mag/cell

     iteration #  2     ecut=    48.00 Ry     beta= 0.50
     Davidson diagonalization with overlap
     ethr =  1.00E-02,  avg # of iterations =  2.5

     negative rho (up, down):  1.013E+00 1.775E-02

     total cpu time spent up to now is       96.1 secs

     total energy              =   -1127.15478257 Ry
     estimated scf accuracy    <      24.19346139 Ry

     total magnetization       =     6.15 Bohr mag/cell
     absolute magnetization    =     6.56 Bohr mag/cell

     iteration #  3     ecut=    48.00 Ry     beta= 0.50
     Davidson diagonalization with overlap
     ethr =  1.00E-02,  avg # of iterations =  5.7

     negative rho (up, down):  1.365E+00 5.054E-02

     total cpu time spent up to now is      153.7 secs

     total energy              =   -1128.26049198 Ry
     estimated scf accuracy    <      56.42701581 Ry

     total magnetization       =     7.85 Bohr mag/cell
     absolute magnetization    =     8.04 Bohr mag/cell

     iteration #  4     ecut=    48.00 Ry     beta= 0.50
     Davidson diagonalization with overlap
     ethr =  1.00E-02,  avg # of iterations =  2.0

     negative rho (up, down):  7.901E-01 2.717E-02

     total cpu time spent up to now is      210.4 secs

     total energy              =   -1133.24675078 Ry
     estimated scf accuracy    <       2.37331343 Ry

     total magnetization       =    11.04 Bohr mag/cell
     absolute magnetization    =    11.25 Bohr mag/cell

     iteration #  5     ecut=    48.00 Ry     beta= 0.50
     Davidson diagonalization with overlap
     ethr =  1.52E-03,  avg # of iterations =  7.5

     negative rho (up, down):  1.963E-01 1.294E-02

     total cpu time spent up to now is      273.9 secs

     total energy              =   -1133.43612110 Ry
     estimated scf accuracy    <       1.50001489 Ry

     total magnetization       =    10.00 Bohr mag/cell
     absolute magnetization    =    10.12 Bohr mag/cell

     iteration #  6     ecut=    48.00 Ry     beta= 0.50
     Davidson diagonalization with overlap
     ethr =  9.62E-04,  avg # of iterations =  5.7

     negative rho (up, down):  8.651E-03 8.113E-03

     total cpu time spent up to now is      335.1 secs

     total energy              =   -1133.52648292 Ry
     estimated scf accuracy    <       0.62130951 Ry

     total magnetization       =    10.00 Bohr mag/cell
     absolute magnetization    =    10.03 Bohr mag/cell

     iteration #  7     ecut=    48.00 Ry     beta= 0.50
     Davidson diagonalization with overlap
     ethr =  3.98E-04,  avg # of iterations =  8.7

     negative rho (up, down):  1.044E-02 7.597E-03

     total cpu time spent up to now is      398.7 secs

     total energy              =   -1133.61970493 Ry
     estimated scf accuracy    <       0.21722705 Ry

     total magnetization       =    10.00 Bohr mag/cell
     absolute magnetization    =    10.07 Bohr mag/cell

     iteration #  8     ecut=    48.00 Ry     beta= 0.50
     Davidson diagonalization with overlap
     ethr =  1.39E-04,  avg # of iterations =  4.4

     negative rho (up, down):  1.871E-02 5.714E-03

     total cpu time spent up to now is      431.6 secs

     total energy              =   -1133.62626966 Ry
     estimated scf accuracy    <       0.04039712 Ry

     total magnetization       =    10.00 Bohr mag/cell
     absolute magnetization    =    10.04 Bohr mag/cell

     iteration #  9     ecut=    48.00 Ry     beta= 0.50
     Davidson diagonalization with overlap
     c_bands:  1 eigenvalues not converged
     ethr =  2.59E-05,  avg # of iterations =  9.7

     negative rho (up, down):  1.802E-02 4.323E-03

     total cpu time spent up to now is      473.2 secs

     total energy              =   -1133.62999097 Ry
     estimated scf accuracy    <       0.00943433 Ry

     total magnetization       =    10.00 Bohr mag/cell
     absolute magnetization    =    10.02 Bohr mag/cell

     iteration # 10     ecut=    48.00 Ry     beta= 0.50
     Davidson diagonalization with overlap
     ethr =  6.05E-06,  avg # of iterations =  9.3

     negative rho (up, down):  5.586E-03 3.886E-03

     total cpu time spent up to now is      512.7 secs

     total energy              =   -1133.63307621 Ry
     estimated scf accuracy    <       0.00340387 Ry

     total magnetization       =    10.00 Bohr mag/cell
     absolute magnetization    =    10.02 Bohr mag/cell

     iteration # 11     ecut=    48.00 Ry     beta= 0.50
     Davidson diagonalization with overlap
     ethr =  2.18E-06,  avg # of iterations = 10.7

     negative rho (up, down):  3.899E-03 3.909E-03

     total cpu time spent up to now is      554.9 secs

     total energy              =   -1133.63343720 Ry
     estimated scf accuracy    <       0.00115844 Ry

     total magnetization       =    10.00 Bohr mag/cell
     absolute magnetization    =    10.02 Bohr mag/cell

     iteration # 12     ecut=    48.00 Ry     beta= 0.50
     Davidson diagonalization with overlap
     ethr =  7.43E-07,  avg # of iterations =  4.7

     negative rho (up, down):  3.420E-03 3.956E-03

     total cpu time spent up to now is      587.4 secs

     total energy              =   -1133.63368701 Ry
     estimated scf accuracy    <       0.00015770 Ry

     total magnetization       =    10.00 Bohr mag/cell
     absolute magnetization    =    10.02 Bohr mag/cell

     iteration # 13     ecut=    48.00 Ry     beta= 0.50
     Davidson diagonalization with overlap
     ethr =  1.01E-07,  avg # of iterations =  5.8

     negative rho (up, down):  3.299E-03 3.937E-03

     total cpu time spent up to now is      623.6 secs

     total energy              =   -1133.63377249 Ry
     estimated scf accuracy    <       0.00006230 Ry

     total magnetization       =    10.00 Bohr mag/cell
     absolute magnetization    =    10.02 Bohr mag/cell

     iteration # 14     ecut=    48.00 Ry     beta= 0.50
     Davidson diagonalization with overlap
     ethr =  3.99E-08,  avg # of iterations =  3.5

     negative rho (up, down):  3.252E-03 3.948E-03

     total cpu time spent up to now is      654.5 secs

     total energy              =   -1133.63380099 Ry
     estimated scf accuracy    <       0.00001308 Ry

     total magnetization       =    10.00 Bohr mag/cell
     absolute magnetization    =    10.02 Bohr mag/cell

     iteration # 15     ecut=    48.00 Ry     beta= 0.50
     Davidson diagonalization with overlap
     ethr =  8.38E-09,  avg # of iterations =  3.8

     negative rho (up, down):  3.240E-03 3.965E-03

     total cpu time spent up to now is      686.9 secs

     total energy              =   -1133.63381533 Ry
     estimated scf accuracy    <       0.00000616 Ry

     total magnetization       =    10.00 Bohr mag/cell
     absolute magnetization    =    10.02 Bohr mag/cell

     iteration # 16     ecut=    48.00 Ry     beta= 0.50
     Davidson diagonalization with overlap
     ethr =  3.95E-09,  avg # of iterations =  4.0

     negative rho (up, down):  3.239E-03 3.974E-03

     total cpu time spent up to now is      720.0 secs

     total energy              =   -1133.63382303 Ry
     estimated scf accuracy    <       0.00000229 Ry

     total magnetization       =    10.00 Bohr mag/cell
     absolute magnetization    =    10.02 Bohr mag/cell

     iteration # 17     ecut=    48.00 Ry     beta= 0.50
     Davidson diagonalization with overlap
     ethr =  1.47E-09,  avg # of iterations =  5.3

     negative rho (up, down):  3.231E-03 3.968E-03

     total cpu time spent up to now is      755.4 secs

     total energy              =   -1133.63383053 Ry
     estimated scf accuracy    <       0.00000062 Ry

     total magnetization       =    10.00 Bohr mag/cell
     absolute magnetization    =    10.02 Bohr mag/cell

     iteration # 18     ecut=    48.00 Ry     beta= 0.50
     Davidson diagonalization with overlap
     ethr =  3.97E-10,  avg # of iterations =  4.8

     negative rho (up, down):  3.226E-03 3.963E-03

     total cpu time spent up to now is      790.2 secs

     total energy              =   -1133.63383310 Ry
     estimated scf accuracy    <       0.00000019 Ry

     total magnetization       =    10.00 Bohr mag/cell
     absolute magnetization    =    10.02 Bohr mag/cell

     iteration # 19     ecut=    48.00 Ry     beta= 0.50
     Davidson diagonalization with overlap
     ethr =  1.22E-10,  avg # of iterations =  4.2

     negative rho (up, down):  3.224E-03 3.959E-03
 
     Magnetic moment per site:
     atom:    1    charge:    0.8804    magn:    0.0004    constr:    0.0000
     atom:    2    charge:    0.8804    magn:    0.0010    constr:    0.0000
     atom:    3    charge:    0.8803    magn:    0.0001    constr:    0.0000
     atom:    4    charge:    0.8803    magn:    0.0001    constr:    0.0000
     atom:    5    charge:    0.8801    magn:    0.0002    constr:    0.0000
     atom:    6    charge:    0.8804    magn:    0.0001    constr:    0.0000
     atom:    7    charge:    2.8609    magn:    0.0003    constr:    0.0000
     atom:    8    charge:    2.8612    magn:    0.0102    constr:    0.0000
     atom:    9    charge:    2.8609    magn:    0.0004    constr:    0.0000
     atom:   10    charge:    2.8609    magn:    0.0003    constr:    0.0000
     atom:   11    charge:    2.8603    magn:    0.0088    constr:    0.0000
     atom:   12    charge:    2.8609    magn:    0.0005    constr:    0.0000
     atom:   13    charge:    2.8596    magn:    0.0033    constr:    0.0000
     atom:   14    charge:    2.8597    magn:    0.0011    constr:    0.0000
     atom:   15    charge:    2.8600    magn:    0.0000    constr:    0.0000
     atom:   16    charge:    0.8802    magn:    0.0000    constr:    0.0000
     atom:   17    charge:    0.8800    magn:    0.0010    constr:    0.0000
     atom:   18    charge:    0.8800    magn:    0.0001    constr:    0.0000
     atom:   19    charge:    0.8795    magn:    0.0002    constr:    0.0000
     atom:   20    charge:    0.8798    magn:    0.0004    constr:    0.0000
     atom:   21    charge:    0.8800    magn:    0.0000    constr:    0.0000
     atom:   22    charge:    2.8609    magn:    0.0033    constr:    0.0000
     atom:   23    charge:    0.8800    magn:    0.0000    constr:    0.0000
     atom:   24    charge:    0.8801    magn:   -0.0013    constr:    0.0000
     atom:   25    charge:    0.8799    magn:    0.0001    constr:    0.0000
     atom:   26    charge:    2.8598    magn:    0.0005    constr:    0.0000
     atom:   27    charge:    2.8600    magn:    0.0102    constr:    0.0000
     atom:   28    charge:    2.8597    magn:    0.0005    constr:    0.0000
     atom:   29    charge:    2.8596    magn:    0.0005    constr:    0.0000
     atom:   30    charge:    2.8596    magn:    0.0004    constr:    0.0000
     atom:   31    charge:    2.8596    magn:    0.0003    constr:    0.0000
     atom:   32    charge:    0.8801    magn:    0.0001    constr:    0.0000
     atom:   33    charge:   11.2277    magn:    3.3855    constr:    0.0000
     atom:   34    charge:   11.2278    magn:    3.3856    constr:    0.0000

     total cpu time spent up to now is      823.4 secs

     End of self-consistent calculation

 ------ SPIN UP ------------


          k = 0.1667 0.2887 0.0000 ( 59267 PWs)   bands (ev):

   -73.6247 -73.2370 -46.0157 -44.8722 -44.8389 -44.6311 -44.5974 -44.3295
   -21.2622 -20.6884 -20.6567 -20.1161 -20.1135 -19.6148 -19.5840 -19.1145
   -18.7244 -18.6945 -18.4687 -18.4673 -18.2113 -18.1042 -18.0846 -17.8633
   -12.4984 -12.2200 -12.2179 -11.8389 -11.8278 -11.6725 -11.2156 -11.1936
   -10.4059 -10.3821 -10.1391 -10.1217  -9.6075  -9.5983  -8.8622  -8.8396
    -8.8355  -8.7913  -8.7648  -8.6110  -8.2114  -8.0969  -8.0027  -7.8431
    -7.8417  -7.4572  -7.4474  -7.2939  -7.2783  -7.2275  -7.2154  -6.9726
    -6.9713  -6.6081  -6.5261  -6.1699  -6.1652  -5.8915  -5.4327  -5.3308
    -5.2826  -5.2143  -4.9273  -4.9194  -4.5402  -4.3755  -4.3575  -4.0201
    -3.9890  -3.9442  -3.8823  -3.0139  -2.4513  -2.3966  -1.5484  -1.5195
    -1.0055  -0.9837  -0.9152  -0.1163   0.4235   0.8069   1.0392   1.2310
     1.3604   1.4875   1.5328   1.5716   1.6150   1.8516

          k = 0.1667-0.4811 0.0000 ( 59291 PWs)   bands (ev):

   -73.6247 -73.2370 -46.0157 -44.8722 -44.8389 -44.6311 -44.5974 -44.3295
   -21.1323 -20.9277 -20.7354 -20.1748 -19.8190 -19.4813 -19.3335 -19.1872
   -19.0303 -18.7918 -18.6555 -18.5583 -18.1647 -18.1035 -17.9343 -17.7378
   -12.3627 -12.1286 -12.0584 -11.9210 -11.7012 -11.6664 -11.5669 -10.9564
   -10.9039 -10.6373 -10.5369  -9.8746  -9.7075  -9.3504  -9.1254  -8.6951
    -8.6381  -8.5666  -8.4041  -8.3880  -8.1748  -8.1290  -8.0828  -8.0592
    -7.7026  -7.6374  -7.5108  -7.4856  -7.3706  -7.1853  -7.0823  -6.8786
    -6.6363  -6.4074  -6.2026  -6.1723  -5.9803  -5.9429  -5.7978  -5.7674
    -5.4655  -5.4091  -5.2318  -5.0588  -4.4790  -4.3682  -4.1081  -3.9920
    -3.9628  -3.8929  -3.7745  -3.0112  -2.4512  -2.3966  -1.5490  -1.5198
    -1.0068  -0.9833  -0.9161  -0.1211   0.3564   0.8220   1.0451   1.1359
     1.2268   1.3174   1.5261   1.8361   1.9134   2.1298

          k = 0.1667-0.0962 0.0000 ( 59226 PWs)   bands (ev):

   -73.6247 -73.2370 -46.0157 -44.8721 -44.8389 -44.6312 -44.5974 -44.3295
   -21.3285 -20.5511 -20.3607 -20.3520 -20.0076 -19.9904 -19.8190 -18.7485
   -18.7339 -18.3923 -18.3884 -18.3674 -18.2775 -18.2748 -18.0924 -18.0828
   -12.5204 -12.5183 -12.4227 -11.5973 -11.5886 -11.4387 -11.4366 -10.9413
   -10.9370  -9.9436  -9.9406  -9.6899  -9.3886  -9.3879  -9.2442  -9.2422
    -9.0564  -9.0545  -8.9450  -8.3382  -8.3355  -7.9153  -7.9144  -7.9044
    -7.8591  -7.7849  -7.6282  -7.5921  -7.1631  -7.0942  -6.9737  -6.9041
    -6.8973  -6.8620  -6.5468  -6.5411  -6.2717  -5.3851  -5.3261  -5.1575
    -5.0793  -4.8347  -4.8276  -4.7740  -4.6255  -4.6185  -4.3867  -4.3412
    -3.9913  -3.9584  -3.8865  -3.0169  -2.4526  -2.3963  -1.5479  -1.5192
    -1.0039  -0.9844  -0.9145  -0.1108   0.4991   0.7741   1.0257   1.2081
     1.2596   1.3793   1.5848   1.6051   1.8194   2.0008

          k =-0.5000-0.8660 0.0000 ( 59292 PWs)   bands (ev):

   -73.6247 -73.2370 -46.0157 -44.8722 -44.8389 -44.6312 -44.5973 -44.3295
   -21.0809 -21.0453 -20.4864 -20.4756 -19.4437 -19.4366 -19.4289 -19.4192
   -19.0175 -18.9915 -18.3593 -18.3474 -18.3178 -18.3087 -17.8104 -17.7994
   -12.0999 -12.0929 -12.0644 -12.0610 -11.8969 -11.8829 -11.3530 -11.3313
   -10.2526 -10.2471 -10.1489 -10.1472 -10.1404 -10.1392  -8.6453  -8.5767
    -8.5698  -8.5488  -8.5424  -8.5281  -7.8833  -7.8783  -7.8738  -7.8718
    -7.8346  -7.8334  -7.8028  -7.7606  -7.5157  -7.4891  -6.6296  -6.6186
    -6.3801  -6.3645  -6.3181  -6.2996  -6.2120  -6.1933  -5.7396  -5.6995
    -5.5705  -5.5452  -4.7805  -4.7706  -4.6838  -4.6781  -4.0205  -3.9771
    -3.9455  -3.8838  -3.8184  -3.0104  -2.4515  -2.3974  -1.5473  -1.5193
    -1.0165  -0.9860  -0.9182  -0.2102   0.4605   0.8418   1.0522   1.1225
     1.4644   1.5752   1.5932   1.6079   1.8053   1.8467

          k =-0.1667 0.2887 0.0000 ( 59267 PWs)   bands (ev):

   -73.6247 -73.2370 -46.0157 -44.8722 -44.8389 -44.6311 -44.5974 -44.3295
   -21.2622 -20.6884 -20.6567 -20.1161 -20.1135 -19.6148 -19.5841 -19.1145
   -18.7243 -18.6945 -18.4687 -18.4673 -18.2113 -18.1041 -18.0846 -17.8633
   -12.4984 -12.2201 -12.2179 -11.8389 -11.8278 -11.6725 -11.2156 -11.1936
   -10.4060 -10.3821 -10.1390 -10.1218  -9.6074  -9.5983  -8.8622  -8.8395
    -8.8355  -8.7913  -8.7648  -8.6109  -8.2114  -8.0969  -8.0027  -7.8431
    -7.8416  -7.4573  -7.4475  -7.2939  -7.2783  -7.2274  -7.2154  -6.9727
    -6.9714  -6.6081  -6.5261  -6.1698  -6.1652  -5.8915  -5.4328  -5.3309
    -5.2826  -5.2142  -4.9273  -4.9194  -4.5402  -4.3755  -4.3575  -4.0201
    -3.9890  -3.9442  -3.8823  -3.0139  -2.4513  -2.3966  -1.5484  -1.5195
    -1.0055  -0.9837  -0.9152  -0.1163   0.4235   0.8069   1.0393   1.2310
     1.3604   1.4875   1.5328   1.5716   1.6150   1.8516

          k = 0.3333 0.0000 0.0000 ( 59267 PWs)   bands (ev):

   -73.6247 -73.2370 -46.0157 -44.8721 -44.8389 -44.6311 -44.5974 -44.3295
   -21.2619 -20.7001 -20.6449 -20.1200 -20.1083 -19.6271 -19.5732 -19.1161
   -18.7305 -18.6846 -18.4744 -18.4629 -18.2085 -18.1170 -18.0762 -17.8626
   -12.4983 -12.2237 -12.2140 -11.8431 -11.8251 -11.6708 -11.2242 -11.1858
   -10.4055 -10.3817 -10.1446 -10.1162  -9.6100  -9.5949  -8.8666  -8.8385
    -8.8303  -8.8019  -8.7553  -8.6116  -8.2126  -8.1200  -7.9792  -7.8427
    -7.8407  -7.4597  -7.4442  -7.3113  -7.2572  -7.2319  -7.2110  -6.9776
    -6.9674  -6.6322  -6.5070  -6.1710  -6.1635  -5.8985  -5.4326  -5.3343
    -5.2669  -5.2144  -4.9380  -4.9135  -4.5276  -4.3892  -4.3538  -4.0400
    -3.9805  -3.9553  -3.8626  -3.0135  -2.4526  -2.3967  -1.5471  -1.5192
    -1.0113  -0.9857  -0.9165  -0.1784   0.4933   0.8028   1.1571   1.1950
     1.3580   1.5022   1.5497   1.5728   1.5895   1.9975

          k =-0.1667-0.4811 0.0000 ( 59291 PWs)   bands (ev):

   -73.6247 -73.2370 -46.0157 -44.8722 -44.8389 -44.6311 -44.5974 -44.3295
   -21.1323 -20.9277 -20.7354 -20.1748 -19.8190 -19.4813 -19.3335 -19.1872
   -19.0303 -18.7918 -18.6555 -18.5583 -18.1647 -18.1035 -17.9343 -17.7378
   -12.3627 -12.1286 -12.0584 -11.9210 -11.7013 -11.6664 -11.5669 -10.9564
   -10.9039 -10.6373 -10.5369  -9.8745  -9.7075  -9.3505  -9.1254  -8.6951
    -8.6381  -8.5666  -8.4041  -8.3880  -8.1747  -8.1290  -8.0829  -8.0592
    -7.7026  -7.6374  -7.5107  -7.4856  -7.3706  -7.1853  -7.0823  -6.8786
    -6.6363  -6.4074  -6.2026  -6.1723  -5.9803  -5.9429  -5.7978  -5.7674
    -5.4656  -5.4091  -5.2318  -5.0588  -4.4790  -4.3683  -4.1081  -3.9920
    -3.9628  -3.8929  -3.7745  -3.0112  -2.4512  -2.3966  -1.5490  -1.5198
    -1.0068  -0.9833  -0.9161  -0.1211   0.3564   0.8220   1.0451   1.1359
     1.2268   1.3174   1.5261   1.8361   1.9135   2.1296

          k = 0.5000-0.0962 0.0000 ( 59291 PWs)   bands (ev):

   -73.6247 -73.2370 -46.0157 -44.8721 -44.8389 -44.6311 -44.5974 -44.3295
   -21.1305 -20.9328 -20.7321 -20.1734 -19.8190 -19.4832 -19.3370 -19.1839
   -19.0311 -18.7928 -18.6482 -18.5623 -18.1579 -18.1132 -17.9327 -17.7374
   -12.3621 -12.1289 -12.0571 -11.9239 -11.7074 -11.6582 -11.5686 -10.9563
   -10.9027 -10.6362 -10.5386  -9.8728  -9.7080  -9.3512  -9.1251  -8.6892
    -8.6385  -8.5651  -8.4098  -8.4033  -8.1735  -8.1174  -8.0905  -8.0526
    -7.6997  -7.6377  -7.5104  -7.4861  -7.3662  -7.1862  -7.0829  -6.8774
    -6.6366  -6.4151  -6.2123  -6.1720  -5.9722  -5.9424  -5.7973  -5.7685
    -5.4663  -5.4122  -5.2128  -5.0669  -4.4581  -4.3817  -4.1246  -3.9920
    -3.9579  -3.9082  -3.7564  -3.0105  -2.4520  -2.3973  -1.5473  -1.5193
    -1.0164  -0.9860  -0.9182  -0.2094   0.4541   0.8320   1.0426   1.1687
     1.2568   1.3300   1.7238   1.8101   1.9778   2.0586

          k =-0.3333-0.3849 0.0000 ( 59291 PWs)   bands (ev):

   -73.6247 -73.2370 -46.0157 -44.8722 -44.8389 -44.6311 -44.5974 -44.3295
   -21.1311 -20.9310 -20.7334 -20.1732 -19.8206 -19.4815 -19.3333 -19.1867
   -19.0329 -18.7916 -18.6493 -18.5616 -18.1591 -18.1115 -17.9328 -17.7376
   -12.3624 -12.1277 -12.0585 -11.9233 -11.7009 -11.6656 -11.5678 -10.9564
   -10.9021 -10.6358 -10.5393  -9.8735  -9.7081  -9.3506  -9.1257  -8.6911
    -8.6376  -8.5665  -8.4051  -8.3991  -8.1745  -8.1223  -8.0838  -8.0601
    -7.6998  -7.6369  -7.5141  -7.4827  -7.3649  -7.1863  -7.0833  -6.8841
    -6.6353  -6.4091  -6.2001  -6.1734  -5.9802  -5.9416  -5.7974  -5.7765
    -5.4662  -5.4080  -5.2156  -5.0652  -4.4637  -4.3773  -4.1268  -3.9894
    -3.9628  -3.8934  -3.7658  -3.0107  -2.4514  -2.3972  -1.5479  -1.5195
    -1.0133  -0.9851  -0.9176  -0.1829   0.4225   0.8338   1.0408   1.1380
     1.2301   1.3704   1.6658   1.8754   1.9382   1.9984

          k = 0.5000 0.0962 0.0000 ( 59291 PWs)   bands (ev):

   -73.6247 -73.2370 -46.0157 -44.8721 -44.8389 -44.6311 -44.5974 -44.3295
   -21.1305 -20.9328 -20.7321 -20.1734 -19.8190 -19.4832 -19.3370 -19.1839
   -19.0311 -18.7928 -18.6482 -18.5623 -18.1579 -18.1132 -17.9327 -17.7374
   -12.3621 -12.1289 -12.0570 -11.9239 -11.7074 -11.6582 -11.5686 -10.9563
   -10.9027 -10.6362 -10.5386  -9.8728  -9.7081  -9.3512  -9.1250  -8.6892
    -8.6385  -8.5651  -8.4098  -8.4033  -8.1735  -8.1174  -8.0905  -8.0526
    -7.6998  -7.6377  -7.5104  -7.4862  -7.3662  -7.1863  -7.0829  -6.8774
    -6.6365  -6.4151  -6.2123  -6.1719  -5.9722  -5.9423  -5.7974  -5.7686
    -5.4663  -5.4122  -5.2128  -5.0669  -4.4581  -4.3817  -4.1246  -3.9920
    -3.9579  -3.9082  -3.7564  -3.0105  -2.4520  -2.3973  -1.5473  -1.5193
    -1.0164  -0.9860  -0.9182  -0.2094   0.4541   0.8320   1.0426   1.1688
     1.2568   1.3299   1.7238   1.8101   1.9779   2.0586

          k =-0.3333 0.3849 0.0000 ( 59291 PWs)   bands (ev):

   -73.6247 -73.2370 -46.0157 -44.8722 -44.8389 -44.6311 -44.5974 -44.3295
   -21.1311 -20.9310 -20.7334 -20.1732 -19.8206 -19.4815 -19.3333 -19.1867
   -19.0329 -18.7916 -18.6493 -18.5616 -18.1591 -18.1115 -17.9328 -17.7376
   -12.3624 -12.1277 -12.0586 -11.9233 -11.7009 -11.6656 -11.5677 -10.9564
   -10.9021 -10.6358 -10.5393  -9.8735  -9.7080  -9.3505  -9.1257  -8.6911
    -8.6377  -8.5664  -8.4052  -8.3991  -8.1746  -8.1223  -8.0838  -8.0601
    -7.6998  -7.6369  -7.5142  -7.4826  -7.3649  -7.1862  -7.0834  -6.8841
    -6.6353  -6.4091  -6.2001  -6.1735  -5.9801  -5.9417  -5.7973  -5.7765
    -5.4661  -5.4080  -5.2156  -5.0652  -4.4637  -4.3773  -4.1268  -3.9894
    -3.9628  -3.8934  -3.7658  -3.0107  -2.4514  -2.3972  -1.5479  -1.5195
    -1.0133  -0.9851  -0.9176  -0.1829   0.4225   0.8338   1.0408   1.1380
     1.2301   1.3704   1.6658   1.8754   1.9382   1.9983

          k =-0.1667-0.0962 0.0000 ( 59226 PWs)   bands (ev):

   -73.6247 -73.2370 -46.0157 -44.8721 -44.8389 -44.6312 -44.5974 -44.3295
   -21.3285 -20.5511 -20.3607 -20.3520 -20.0076 -19.9904 -19.8190 -18.7485
   -18.7339 -18.3923 -18.3884 -18.3674 -18.2775 -18.2748 -18.0924 -18.0828
   -12.5204 -12.5183 -12.4226 -11.5973 -11.5886 -11.4387 -11.4366 -10.9413
   -10.9370  -9.9436  -9.9406  -9.6898  -9.3886  -9.3879  -9.2442  -9.2422
    -9.0564  -9.0545  -8.9450  -8.3382  -8.3355  -7.9153  -7.9144  -7.9044
    -7.8591  -7.7849  -7.6282  -7.5921  -7.1631  -7.0942  -6.9738  -6.9041
    -6.8973  -6.8620  -6.5468  -6.5410  -6.2718  -5.3851  -5.3261  -5.1574
    -5.0794  -4.8346  -4.8276  -4.7740  -4.6254  -4.6185  -4.3867  -4.3413
    -3.9913  -3.9584  -3.8865  -3.0169  -2.4526  -2.3963  -1.5479  -1.5192
    -1.0039  -0.9844  -0.9145  -0.1108   0.4991   0.7741   1.0257   1.2081
     1.2596   1.3793   1.5849   1.6051   1.8194   1.9980

          k =-0.0000-0.1925 0.0000 ( 59226 PWs)   bands (ev):

   -73.6247 -73.2370 -46.0157 -44.8721 -44.8389 -44.6312 -44.5974 -44.3295
   -21.3286 -20.5478 -20.3599 -20.3590 -19.9986 -19.9944 -19.8211 -18.7409
   -18.7392 -18.4072 -18.3840 -18.3698 -18.2693 -18.2691 -18.0901 -18.0882
   -12.5240 -12.5145 -12.4228 -11.5942 -11.5930 -11.4414 -11.4314 -10.9401
   -10.9395  -9.9420  -9.9420  -9.6902  -9.3900  -9.3859  -9.2434  -9.2433
    -9.0559  -9.0552  -8.9453  -8.3365  -8.3365  -7.9147  -7.9128  -7.8951
    -7.8594  -7.7861  -7.6214  -7.6199  -7.1329  -7.1086  -6.9730  -6.9021
    -6.9001  -6.8671  -6.5442  -6.5431  -6.2722  -5.3622  -5.3425  -5.1574
    -5.0793  -4.8499  -4.8454  -4.7696  -4.6123  -4.6098  -4.3732  -4.3513
    -3.9922  -3.9582  -3.8892  -3.0171  -2.4520  -2.3963  -1.5485  -1.5193
    -1.0012  -0.9833  -0.9138  -0.0731   0.4590   0.7754   0.9732   1.1898
     1.2811   1.3834   1.5934   1.6166   1.7407   2.0071

          k = 0.5000-0.8660 0.0000 ( 59292 PWs)   bands (ev):

   -73.6247 -73.2370 -46.0157 -44.8722 -44.8389 -44.6312 -44.5973 -44.3295
   -21.0808 -21.0453 -20.4864 -20.4756 -19.4437 -19.4366 -19.4289 -19.4192
   -19.0174 -18.9915 -18.3593 -18.3475 -18.3177 -18.3088 -17.8104 -17.7994
   -12.0998 -12.0930 -12.0644 -12.0611 -11.8969 -11.8828 -11.3530 -11.3313
   -10.2526 -10.2471 -10.1488 -10.1473 -10.1404 -10.1392  -8.6453  -8.5766
    -8.5698  -8.5488  -8.5425  -8.5281  -7.8833  -7.8782  -7.8737  -7.8718
    -7.8346  -7.8335  -7.8028  -7.7606  -7.5158  -7.4891  -6.6295  -6.6185
    -6.3801  -6.3645  -6.3181  -6.2996  -6.2119  -6.1932  -5.7396  -5.6995
    -5.5706  -5.5453  -4.7805  -4.7706  -4.6838  -4.6781  -4.0205  -3.9771
    -3.9455  -3.8838  -3.8184  -3.0104  -2.4515  -2.3974  -1.5473  -1.5193
    -1.0165  -0.9860  -0.9182  -0.2102   0.4605   0.8418   1.0522   1.1226
     1.4644   1.5752   1.5932   1.6079   1.8055   1.8467

          k =-1.0000 0.0000 0.0000 ( 59292 PWs)   bands (ev):

   -73.6247 -73.2370 -46.0158 -44.8722 -44.8389 -44.6311 -44.5973 -44.3295
   -21.0909 -21.0334 -20.4829 -20.4824 -19.4376 -19.4369 -19.4273 -19.4227
   -19.0259 -18.9836 -18.3849 -18.3503 -18.3052 -18.2939 -17.8064 -17.8043
   -12.1174 -12.0961 -12.0531 -12.0487 -11.8925 -11.8881 -11.3634 -11.3227
   -10.2547 -10.2543 -10.1435 -10.1434 -10.1402 -10.1401  -8.6617  -8.5893
    -8.5734  -8.5419  -8.5308  -8.5048  -7.8844  -7.8842  -7.8759  -7.8751
    -7.8286  -7.8273  -7.7917  -7.7837  -7.5272  -7.4791  -6.6247  -6.6215
    -6.3780  -6.3498  -6.3190  -6.3038  -6.2210  -6.1858  -5.7495  -5.6899
    -5.5805  -5.5357  -4.8090  -4.8002  -4.6633  -4.6572  -3.9937  -3.9837
    -3.8939  -3.8875  -3.8777  -3.0114  -2.4511  -2.3963  -1.5494  -1.5201
    -1.0036  -0.9824  -0.9151  -0.0859   0.3277   0.8177   1.0833   1.1220
     1.2140   1.5624   1.5886   1.6232   1.6427   1.8783

 ------ SPIN DOWN ----------


          k = 0.1667 0.2887 0.0000 ( 59267 PWs)   bands (ev):

   -69.5276 -69.1197 -42.1388 -40.7375 -40.7058 -40.4831 -40.4513 -40.3818
   -21.2574 -20.6820 -20.6542 -20.1113 -20.1092 -19.6082 -19.5817 -19.1096
   -18.7159 -18.6920 -18.4638 -18.4628 -18.2048 -18.0989 -18.0824 -17.8586
   -12.4960 -12.2173 -12.2151 -11.8360 -11.8259 -11.6702 -11.2121 -11.1917
   -10.4028 -10.3795 -10.1347 -10.1199  -9.6043  -9.5961  -8.8409  -8.8360
    -8.8277  -8.7874  -8.7634  -8.6083  -8.2087  -8.0644  -7.9951  -7.8402
    -7.8390  -7.4524  -7.4448  -7.2710  -7.2622  -7.2239  -7.2134  -6.9698
    -6.9687  -6.5797  -6.5195  -6.1666  -6.1625  -5.8698  -5.4291  -5.2981
    -5.2649  -5.2112  -4.9065  -4.9031  -4.5054  -4.3572  -4.3373  -3.9778
    -1.5400  -0.5197  -0.4880  -0.4440   0.6025   0.8847   1.0545   1.1548
     1.2548   1.2852   1.4519   1.5122   1.5425   1.5728   1.6796   1.9582
     2.0856   2.1235   2.2458   2.2586   2.3312   2.4586

          k = 0.1667-0.4811 0.0000 ( 59291 PWs)   bands (ev):

   -69.5276 -69.1197 -42.1388 -40.7375 -40.7058 -40.4831 -40.4513 -40.3818
   -21.1271 -20.9236 -20.7312 -20.1702 -19.8144 -19.4765 -19.3283 -19.1828
   -19.0252 -18.7876 -18.6492 -18.5547 -18.1572 -18.1009 -17.9299 -17.7329
   -12.3602 -12.1259 -12.0560 -11.9186 -11.6980 -11.6645 -11.5644 -10.9534
   -10.9010 -10.6346 -10.5343  -9.8712  -9.7049  -9.3472  -9.1226  -8.6630
    -8.6350  -8.5634  -8.4014  -8.3722  -8.1722  -8.1128  -8.0791  -8.0575
    -7.6995  -7.6346  -7.5073  -7.4837  -7.3501  -7.1818  -7.0795  -6.8586
    -6.6326  -6.3874  -6.1790  -6.1693  -5.9652  -5.9394  -5.7947  -5.7457
    -5.4626  -5.3928  -5.1992  -5.0456  -4.4373  -4.3551  -4.0860  -3.7661
    -1.5329  -0.5195  -0.4893  -0.4391   0.5901   0.8591   1.0522   1.0870
     1.1547   1.2195   1.3123   1.3567   1.6451   1.8244   1.9508   2.0870
     2.1196   2.2225   2.2371   2.2801   2.3402   2.3619

          k = 0.1667-0.0962 0.0000 ( 59226 PWs)   bands (ev):

   -69.5276 -69.1197 -42.1388 -40.7375 -40.7058 -40.4831 -40.4513 -40.3818
   -21.3239 -20.5458 -20.3564 -20.3482 -20.0016 -19.9867 -19.8154 -18.7417
   -18.7293 -18.3852 -18.3822 -18.3635 -18.2732 -18.2712 -18.0879 -18.0796
   -12.5179 -12.5158 -12.4201 -11.5945 -11.5865 -11.4359 -11.4339 -10.9383
   -10.9344  -9.9406  -9.9383  -9.6867  -9.3859  -9.3851  -9.2408  -9.2390
    -9.0539  -9.0516  -8.9208  -8.3346  -8.3321  -7.9123  -7.9112  -7.8754
    -7.8549  -7.7822  -7.6084  -7.5809  -7.1316  -7.0840  -6.9706  -6.9010
    -6.8950  -6.8509  -6.5435  -6.5386  -6.2688  -5.3485  -5.3115  -5.1541
    -5.0762  -4.8061  -4.8023  -4.7503  -4.6068  -4.6050  -4.3536  -4.3296
    -1.5472  -0.5202  -0.4870  -0.4488   0.6182   0.8300   1.0556   1.1792
     1.2665   1.3451   1.3721   1.5596   1.5913   1.6410   1.8150   1.9246
     2.0252   2.0742   2.0993   2.2805   2.3128   2.3865

          k =-0.5000-0.8660 0.0000 ( 59292 PWs)   bands (ev):

   -69.5276 -69.1197 -42.1388 -40.7375 -40.7058 -40.4831 -40.4513 -40.3818
   -21.0739 -21.0429 -20.4817 -20.4718 -19.4368 -19.4313 -19.4240 -19.4166
   -19.0107 -18.9895 -18.3499 -18.3403 -18.3155 -18.3077 -17.8048 -17.7957
   -12.0958 -12.0889 -12.0631 -12.0599 -11.8941 -11.8811 -11.3497 -11.3294
   -10.2490 -10.2445 -10.1454 -10.1442 -10.1377 -10.1369  -8.6044  -8.5717
    -8.5659  -8.5472  -8.5415  -8.5211  -7.8798  -7.8746  -7.8712  -7.8689
    -7.8310  -7.8290  -7.7819  -7.7497  -7.5118  -7.4878  -6.6254  -6.6164
    -6.3447  -6.3352  -6.3038  -6.2915  -6.2078  -6.1910  -5.7170  -5.6877
    -5.5657  -5.5438  -4.7417  -4.7360  -4.6775  -4.6736  -3.8879  -3.8656
    -1.5204  -0.5184  -0.4886  -0.4424   0.4044   0.8784   1.0440   1.0949
     1.1983   1.4352   1.5167   1.5667   1.6045   1.6328   1.7197   1.9212
     1.9391   2.2222   2.2296   2.2805   2.3588   2.3994

          k =-0.1667 0.2887 0.0000 ( 59267 PWs)   bands (ev):

   -69.5276 -69.1197 -42.1388 -40.7375 -40.7058 -40.4831 -40.4513 -40.3818
   -21.2574 -20.6820 -20.6543 -20.1113 -20.1092 -19.6082 -19.5817 -19.1096
   -18.7159 -18.6921 -18.4638 -18.4628 -18.2048 -18.0989 -18.0824 -17.8586
   -12.4960 -12.2173 -12.2151 -11.8359 -11.8259 -11.6702 -11.2120 -11.1917
   -10.4028 -10.3795 -10.1347 -10.1200  -9.6042  -9.5961  -8.8409  -8.8360
    -8.8277  -8.7874  -8.7634  -8.6083  -8.2088  -8.0644  -7.9952  -7.8402
    -7.8389  -7.4524  -7.4448  -7.2710  -7.2622  -7.2239  -7.2134  -6.9699
    -6.9688  -6.5796  -6.5195  -6.1666  -6.1625  -5.8698  -5.4292  -5.2981
    -5.2649  -5.2111  -4.9065  -4.9031  -4.5054  -4.3572  -4.3373  -3.9778
    -1.5400  -0.5197  -0.4880  -0.4440   0.6025   0.8847   1.0545   1.1548
     1.2548   1.2852   1.4519   1.5122   1.5425   1.5727   1.6796   1.9582
     2.0857   2.1235   2.2458   2.2590   2.3315   2.4603

          k = 0.3333 0.0000 0.0000 ( 59267 PWs)   bands (ev):

   -69.5276 -69.1197 -42.1388 -40.7375 -40.7058 -40.4831 -40.4513 -40.3818
   -21.2572 -20.6934 -20.6427 -20.1153 -20.1042 -19.6201 -19.5711 -19.1110
   -18.7223 -18.6825 -18.4691 -18.4587 -18.2023 -18.1110 -18.0741 -17.8581
   -12.4958 -12.2215 -12.2109 -11.8405 -11.8230 -11.6686 -11.2203 -11.1840
   -10.4026 -10.3790 -10.1406 -10.1143  -9.6068  -9.5928  -8.8465  -8.8344
    -8.8223  -8.7979  -8.7539  -8.6089  -8.2098  -8.0850  -7.9744  -7.8397
    -7.8382  -7.4552  -7.4415  -7.2854  -7.2450  -7.2282  -7.2092  -6.9747
    -6.9648  -6.6004  -6.5020  -6.1676  -6.1609  -5.8736  -5.4291  -5.3053
    -5.2519  -5.2113  -4.9150  -4.8959  -4.5020  -4.3702  -4.3295  -3.9771
    -1.5320  -0.5176  -0.4877  -0.4462   0.4733   0.8242   1.0661   1.2451
     1.3271   1.4404   1.4590   1.4849   1.5360   1.5824   1.6121   1.9340
     2.0473   2.1845   2.2723   2.2887   2.3082   2.4567

          k =-0.1667-0.4811 0.0000 ( 59291 PWs)   bands (ev):

   -69.5276 -69.1197 -42.1388 -40.7375 -40.7058 -40.4831 -40.4513 -40.3818
   -21.1271 -20.9236 -20.7312 -20.1702 -19.8144 -19.4765 -19.3283 -19.1828
   -19.0252 -18.7876 -18.6492 -18.5547 -18.1573 -18.1009 -17.9299 -17.7329
   -12.3602 -12.1258 -12.0560 -11.9186 -11.6980 -11.6645 -11.5644 -10.9534
   -10.9010 -10.6346 -10.5343  -9.8712  -9.7049  -9.3472  -9.1226  -8.6630
    -8.6350  -8.5634  -8.4013  -8.3722  -8.1722  -8.1128  -8.0792  -8.0575
    -7.6995  -7.6347  -7.5073  -7.4837  -7.3501  -7.1818  -7.0795  -6.8586
    -6.6326  -6.3874  -6.1790  -6.1694  -5.9652  -5.9393  -5.7947  -5.7457
    -5.4626  -5.3928  -5.1992  -5.0456  -4.4373  -4.3551  -4.0860  -3.7661
    -1.5329  -0.5195  -0.4893  -0.4391   0.5901   0.8591   1.0522   1.0870
     1.1547   1.2194   1.3124   1.3567   1.6451   1.8244   1.9508   2.0870
     2.1195   2.2225   2.2367   2.2799   2.3411   2.3645

          k = 0.5000-0.0962 0.0000 ( 59291 PWs)   bands (ev):

   -69.5276 -69.1197 -42.1389 -40.7375 -40.7058 -40.4831 -40.4513 -40.3818
   -21.1254 -20.9282 -20.7284 -20.1690 -19.8144 -19.4781 -19.3314 -19.1799
   -19.0258 -18.7884 -18.6429 -18.5581 -18.1508 -18.1097 -17.9286 -17.7326
   -12.3595 -12.1263 -12.0548 -11.9213 -11.7042 -11.6566 -11.5658 -10.9535
   -10.8997 -10.6336 -10.5359  -9.8696  -9.7054  -9.3478  -9.1223  -8.6588
    -8.6353  -8.5621  -8.4044  -8.3849  -8.1710  -8.1044  -8.0863  -8.0512
    -7.6969  -7.6349  -7.5070  -7.4842  -7.3471  -7.1827  -7.0800  -6.8579
    -6.6329  -6.3919  -6.1858  -6.1690  -5.9591  -5.9389  -5.7942  -5.7469
    -5.4633  -5.3941  -5.1883  -5.0514  -4.4282  -4.3663  -4.0851  -3.7656
    -1.5205  -0.5184  -0.4887  -0.4425   0.4079   0.8462   1.0277   1.1021
     1.2225   1.3240   1.3732   1.4166   1.6527   1.8241   1.9566   2.0316
     2.1186   2.1809   2.2087   2.2927   2.3319   2.4089

          k =-0.3333-0.3849 0.0000 ( 59291 PWs)   bands (ev):

   -69.5276 -69.1197 -42.1388 -40.7375 -40.7058 -40.4831 -40.4513 -40.3818
   -21.1260 -20.9266 -20.7295 -20.1688 -19.8158 -19.4767 -19.3283 -19.1823
   -19.0275 -18.7873 -18.6438 -18.5576 -18.1520 -18.1082 -17.9286 -17.7327
   -12.3599 -12.1249 -12.0563 -11.9206 -11.6979 -11.6638 -11.5652 -10.9535
   -10.8993 -10.6331 -10.5365  -9.8702  -9.7054  -9.3474  -9.1229  -8.6600
    -8.6345  -8.5632  -8.4022  -8.3803  -8.1720  -8.1078  -8.0799  -8.0584
    -7.6970  -7.6341  -7.5105  -7.4810  -7.3463  -7.1828  -7.0804  -6.8621
    -6.6317  -6.3884  -6.1783  -6.1701  -5.9644  -5.9382  -5.7943  -5.7512
    -5.4632  -5.3915  -5.1895  -5.0512  -4.4292  -4.3652  -4.0849  -3.7658
    -1.5247  -0.5195  -0.4889  -0.4414   0.4593   0.8701   1.0439   1.0885
     1.2045   1.2529   1.3080   1.4311   1.6719   1.9064   1.9674   2.0501
     2.0984   2.1409   2.2037   2.2825   2.3367   2.3734

          k = 0.5000 0.0962 0.0000 ( 59291 PWs)   bands (ev):

   -69.5276 -69.1197 -42.1389 -40.7375 -40.7058 -40.4831 -40.4513 -40.3818
   -21.1254 -20.9282 -20.7284 -20.1690 -19.8144 -19.4781 -19.3314 -19.1799
   -19.0258 -18.7884 -18.6429 -18.5581 -18.1508 -18.1097 -17.9285 -17.7326
   -12.3595 -12.1263 -12.0548 -11.9213 -11.7041 -11.6566 -11.5659 -10.9534
   -10.8997 -10.6336 -10.5360  -9.8696  -9.7054  -9.3478  -9.1222  -8.6588
    -8.6353  -8.5621  -8.4044  -8.3849  -8.1710  -8.1044  -8.0863  -8.0512
    -7.6970  -7.6349  -7.5070  -7.4843  -7.3471  -7.1828  -7.0800  -6.8579
    -6.6328  -6.3919  -6.1858  -6.1689  -5.9591  -5.9389  -5.7943  -5.7469
    -5.4633  -5.3941  -5.1883  -5.0514  -4.4282  -4.3662  -4.0851  -3.7657
    -1.5205  -0.5184  -0.4887  -0.4425   0.4079   0.8462   1.0277   1.1021
     1.2226   1.3240   1.3732   1.4166   1.6527   1.8241   1.9566   2.0316
     2.1185   2.1810   2.2086   2.2929   2.3318   2.4090

          k =-0.3333 0.3849 0.0000 ( 59291 PWs)   bands (ev):

   -69.5276 -69.1197 -42.1388 -40.7375 -40.7058 -40.4831 -40.4513 -40.3818
   -21.1260 -20.9266 -20.7295 -20.1688 -19.8158 -19.4767 -19.3283 -19.1823
   -19.0275 -18.7874 -18.6438 -18.5576 -18.1520 -18.1082 -17.9286 -17.7328
   -12.3599 -12.1249 -12.0563 -11.9206 -11.6979 -11.6638 -11.5651 -10.9536
   -10.8993 -10.6331 -10.5365  -9.8702  -9.7054  -9.3474  -9.1229  -8.6600
    -8.6346  -8.5632  -8.4023  -8.3803  -8.1720  -8.1078  -8.0798  -8.0584
    -7.6970  -7.6341  -7.5105  -7.4810  -7.3463  -7.1827  -7.0804  -6.8621
    -6.6317  -6.3884  -6.1783  -6.1701  -5.9644  -5.9383  -5.7943  -5.7512
    -5.4631  -5.3915  -5.1895  -5.0512  -4.4292  -4.3652  -4.0849  -3.7658
    -1.5247  -0.5195  -0.4889  -0.4414   0.4593   0.8701   1.0439   1.0885
     1.2045   1.2529   1.3080   1.4311   1.6719   1.9063   1.9674   2.0501
     2.0983   2.1408   2.2037   2.2825   2.3366   2.3735

          k =-0.1667-0.0962 0.0000 ( 59226 PWs)   bands (ev):

   -69.5276 -69.1197 -42.1388 -40.7375 -40.7058 -40.4831 -40.4513 -40.3818
   -21.3239 -20.5458 -20.3564 -20.3482 -20.0016 -19.9867 -19.8154 -18.7417
   -18.7293 -18.3852 -18.3822 -18.3635 -18.2732 -18.2712 -18.0878 -18.0796
   -12.5180 -12.5158 -12.4201 -11.5945 -11.5864 -11.4359 -11.4340 -10.9383
   -10.9344  -9.9406  -9.9384  -9.6866  -9.3858  -9.3851  -9.2408  -9.2390
    -9.0539  -9.0517  -8.9208  -8.3346  -8.3321  -7.9123  -7.9112  -7.8754
    -7.8548  -7.7822  -7.6084  -7.5809  -7.1315  -7.0840  -6.9707  -6.9010
    -6.8950  -6.8509  -6.5435  -6.5385  -6.2689  -5.3485  -5.3115  -5.1540
    -5.0763  -4.8061  -4.8022  -4.7504  -4.6067  -4.6050  -4.3536  -4.3296
    -1.5472  -0.5202  -0.4870  -0.4488   0.6182   0.8300   1.0555   1.1792
     1.2666   1.3451   1.3721   1.5597   1.5913   1.6409   1.8150   1.9246
     2.0252   2.0742   2.0992   2.2804   2.3124   2.3865

          k =-0.0000-0.1925 0.0000 ( 59226 PWs)   bands (ev):

   -69.5276 -69.1197 -42.1388 -40.7375 -40.7058 -40.4831 -40.4513 -40.3818
   -21.3239 -20.5429 -20.3551 -20.3549 -19.9937 -19.9902 -19.8173 -18.7353
   -18.7338 -18.3988 -18.3785 -18.3650 -18.2664 -18.2659 -18.0858 -18.0843
   -12.5220 -12.5116 -12.4202 -11.5916 -11.5904 -11.4391 -11.4287 -10.9372
   -10.9366  -9.9397  -9.9391  -9.6869  -9.3865  -9.3837  -9.2402  -9.2401
    -9.0534  -9.0524  -8.9211  -8.3332  -8.3331  -7.9117  -7.9103  -7.8695
    -7.8539  -7.7832  -7.6026  -7.6015  -7.1092  -7.0951  -6.9699  -6.8993
    -6.8975  -6.8550  -6.5412  -6.5404  -6.2692  -5.3324  -5.3242  -5.1542
    -5.0761  -4.8205  -4.8029  -4.7513  -4.6003  -4.5956  -4.3467  -4.3397
    -1.5511  -0.5213  -0.4871  -0.4478   0.7112   0.8613   1.0474   1.1493
     1.1910   1.2705   1.4217   1.5341   1.5690   1.6261   1.8381   1.9511
     1.9576   2.0718   2.1629   2.2756   2.3362   2.3544

          k = 0.5000-0.8660 0.0000 ( 59292 PWs)   bands (ev):

   -69.5276 -69.1197 -42.1388 -40.7375 -40.7058 -40.4831 -40.4513 -40.3818
   -21.0739 -21.0429 -20.4817 -20.4719 -19.4368 -19.4313 -19.4240 -19.4166
   -19.0106 -18.9896 -18.3498 -18.3403 -18.3155 -18.3078 -17.8048 -17.7956
   -12.0958 -12.0890 -12.0631 -12.0600 -11.8941 -11.8811 -11.3496 -11.3294
   -10.2490 -10.2446 -10.1454 -10.1443 -10.1377 -10.1370  -8.6044  -8.5716
    -8.5659  -8.5471  -8.5415  -8.5211  -7.8798  -7.8746  -7.8712  -7.8689
    -7.8310  -7.8290  -7.7818  -7.7497  -7.5118  -7.4878  -6.6253  -6.6163
    -6.3447  -6.3352  -6.3038  -6.2915  -6.2077  -6.1910  -5.7170  -5.6878
    -5.5658  -5.5439  -4.7417  -4.7360  -4.6775  -4.6736  -3.8879  -3.8657
    -1.5204  -0.5184  -0.4886  -0.4424   0.4044   0.8784   1.0440   1.0949
     1.1983   1.4351   1.5167   1.5667   1.6044   1.6327   1.7197   1.9212
     1.9391   2.2219   2.2295   2.2803   2.3587   2.3988

          k =-1.0000 0.0000 0.0000 ( 59292 PWs)   bands (ev):

   -69.5276 -69.1197 -42.1389 -40.7375 -40.7058 -40.4831 -40.4513 -40.3818
   -21.0839 -21.0313 -20.4787 -20.4778 -19.4326 -19.4313 -19.4224 -19.4189
   -19.0189 -18.9817 -18.3746 -18.3428 -18.3039 -18.2930 -17.8014 -17.7998
   -12.1142 -12.0918 -12.0514 -12.0478 -11.8899 -11.8860 -11.3596 -11.3209
   -10.2515 -10.2512 -10.1406 -10.1402 -10.1379 -10.1375  -8.6203  -8.5838
    -8.5698  -8.5408  -8.5298  -8.5002  -7.8810  -7.8805  -7.8728  -7.8719
    -7.8247  -7.8245  -7.7723  -7.7671  -7.5230  -7.4778  -6.6212  -6.6189
    -6.3425  -6.3290  -6.3024  -6.2936  -6.2164  -6.1838  -5.7279  -5.6781
    -5.5755  -5.5343  -4.7723  -4.7449  -4.6598  -4.6546  -3.8797  -3.8744
    -1.5369  -0.5184  -0.4895  -0.4378   0.6718   0.8552   1.0721   1.0780
     1.1098   1.2874   1.4485   1.4951   1.5778   1.6296   1.6645   1.8740
     2.0480   2.2706   2.2872   2.3084   2.3266   2.3640

     the Fermi energy is    -0.8090 ev

!    total energy              =   -1133.63383401 Ry

     total all-electron energy =     -6753.309537 Ry
     estimated scf accuracy    <       0.00000006 Ry
     smearing contrib. (-TS)   =      -0.00000000 Ry
     internal energy E=F+TS    =   -1133.63383401 Ry

     The total energy is F=E-TS. E is the sum of the following terms:
     one-electron contribution =   -4007.04149614 Ry
     hartree contribution      =    2031.17949390 Ry
     xc contribution           =    -186.21329023 Ry
     ewald contribution        =    1387.82602721 Ry
     DFT-D3 Dispersion         =      -0.12189713 Ry
     one-center paw contrib.   =    -359.26267163 Ry

     total magnetization       =    10.00 Bohr mag/cell
     absolute magnetization    =    10.02 Bohr mag/cell

     convergence has been achieved in  19 iterations

     Writing output data file ./mytmp/Crdimer0.1-0.5.save/
 
     init_run     :     18.42s CPU     19.35s WALL (       1 calls)
     electrons    :    703.74s CPU    803.88s WALL (       1 calls)

     Called by init_run:
     wfcinit      :     13.63s CPU     14.14s WALL (       1 calls)
     potinit      :      1.52s CPU      1.62s WALL (       1 calls)
     hinit0       :      1.55s CPU      1.61s WALL (       1 calls)

     Called by electrons:
     c_bands      :    563.08s CPU    638.57s WALL (      19 calls)
     sum_band     :    110.35s CPU    128.44s WALL (      19 calls)
     v_of_rho     :      6.51s CPU      7.50s WALL (      20 calls)
     newd         :     13.34s CPU     17.75s WALL (      20 calls)
     PAW_pot      :      8.93s CPU      9.99s WALL (      20 calls)
     mix_rho      :      1.53s CPU      1.69s WALL (      19 calls)

     Called by c_bands:
     init_us_2    :      6.77s CPU      6.87s WALL (    1170 calls)
     cegterg      :    545.76s CPU    620.85s WALL (     570 calls)

     Called by *egterg:
     cdiaghg      :     37.70s CPU     61.85s WALL (    3785 calls)
     h_psi        :    340.82s CPU    382.69s WALL (    3815 calls)
     s_psi        :     35.24s CPU     35.69s WALL (    3815 calls)
     g_psi        :      0.85s CPU      0.90s WALL (    3215 calls)

     Called by h_psi:
     h_psi:calbec :     40.26s CPU     42.81s WALL (    3815 calls)
     vloc_psi     :    261.85s CPU    300.48s WALL (    3815 calls)
     add_vuspsi   :     36.11s CPU     36.79s WALL (    3815 calls)

     General routines
     calbec       :     54.16s CPU     57.54s WALL (    4385 calls)
     fft          :      6.77s CPU      9.22s WALL (     494 calls)
     ffts         :      0.16s CPU      0.20s WALL (      78 calls)
     fftw         :    278.23s CPU    326.09s WALL (  322918 calls)
     interpolate  :      0.56s CPU      0.69s WALL (      40 calls)
 
     Parallel routines
     fft_scatt_xy :     39.38s CPU     41.24s WALL (  323490 calls)
     fft_scatt_yz :    131.38s CPU    174.74s WALL (  323490 calls)
 
     PWSCF        :  12m 4.16s CPU  13m47.44s WALL

 
   This run was terminated on:  11: 1:59  31Mar2021            

=------------------------------------------------------------------------------=
   JOB DONE.
=------------------------------------------------------------------------------=
