
     Program PWSCF v.6.7MaX starts on 31Mar2021 at 14:23:48 

     This program is part of the open-source Quantum ESPRESSO suite
     for quantum simulation of materials; please cite
         "P. Giannozzi et al., J. Phys.:Condens. Matter 21 395502 (2009);
         "P. Giannozzi et al., J. Phys.:Condens. Matter 29 465901 (2017);
          URL http://www.quantum-espresso.org", 
     in publications or presentations arising from this work. More details at
     http://www.quantum-espresso.org/quote

     Parallel version (MPI), running on    48 processors

     MPI processes distributed on     1 nodes
     R & G space division:  proc/nbgrp/npool/nimage =      48
     Reading input from Crdimer0.14-0.3.scf.in

     Current dimensions of program PWSCF are:
     Max number of different atomic species (ntypx) = 10
     Max number of k-points (npk) =  40000
     Max angular momentum in pseudopotentials (lmaxx) =  3
     file N.pbe-n-kjpaw_psl.1.0.0.UPF: wavefunction(s)  2S renormalized
     file Cr.pbe-spn-kjpaw_psl.1.0.0.UPF: wavefunction(s)  3S 3P 3D renormalized
     file Cr.pbe-spn-kjpaw_psl.1.0.0.UPF: wavefunction(s)  3S 3P 3D renormalized

     --------------------------------------------
     Parameters for DFT-D3 Dispersion Correction:
     --------------------------------------------
       Reference C6 values for interpolation: 

         atom   Coordination number   C6
         B          0.000           214.36
         B          0.971           150.74
         B          1.944           106.23
         B          2.913            62.89
         B          4.586            56.06
         N          0.000            50.54
         N          0.994            44.25
         N          2.014            39.35
         N          2.990            31.16
         Cr1        0.000          1381.48
         Cr1        1.827           571.38
         Cr1       10.619           306.69
         Cr2        0.000          1381.48
         Cr2        1.827           571.38
         Cr2       10.619           306.69

       Values used:

         atom   Coordination number  R0_AB[au]  C6      C8
         B          3.338            3.039     62.89   2505.93
         B          3.335            3.039     62.89   2506.00
         B          3.338            3.039     62.89   2505.95
         B          3.335            3.039     62.89   2506.01
         B          3.380            3.039     62.86   2504.75
         B          3.335            3.039     62.89   2506.01
         N          3.135            2.478     31.22    688.69
         N          3.136            2.478     31.22    688.68
         N          3.140            2.478     31.22    688.65
         N          3.135            2.478     31.22    688.69
         N          3.154            2.478     31.21    688.52
         N          3.134            2.478     31.22    688.69
         N          3.149            2.478     31.21    688.56
         N          3.134            2.478     31.22    688.70
         N          3.134            2.478     31.22    688.70
         B          3.341            3.039     62.89   2505.87
         B          3.335            3.039     62.89   2506.00
         B          3.335            3.039     62.89   2506.01
         B          3.380            3.039     62.86   2504.75
         B          3.338            3.039     62.89   2505.93
         B          3.341            3.039     62.89   2505.87
         N          3.149            2.478     31.21    688.56
         B          3.336            3.039     62.89   2506.00
         B          3.343            3.039     62.89   2505.80
         B          3.337            3.039     62.89   2505.97
         N          3.134            2.478     31.22    688.69
         N          3.136            2.478     31.22    688.68
         N          3.134            2.478     31.22    688.70
         N          3.134            2.478     31.22    688.70
         N          3.140            2.478     31.22    688.65
         N          3.135            2.478     31.22    688.69
         B          3.337            3.039     62.89   2505.97
         Cr1        0.778            3.252   1259.06 116196.74
         Cr2        0.778            3.252   1259.06 116196.74

         Molecular C6 ( Ry / a.u.^6 ) =     77743.72


     Subspace diagonalization in iterative solution of the eigenvalue problem:
     one sub-group per band group will be used
     scalapack distributed-memory algorithm (size of sub-group:  6*  6 procs)

 
     Parallelization info
     --------------------
     sticks:   dense  smooth     PW     G-vecs:    dense   smooth      PW
     Min         235      98     26                36277     9874    1408
     Max         236      99     27                36282     9883    1425
     Sum       11311    4741   1285              1741401   474235   68095
 


     bravais-lattice index     =            4
     lattice parameter (alat)  =      18.9275  a.u.
     unit-cell volume          =   10553.3021 (a.u.)^3
     number of atoms/cell      =           34
     number of atomic types    =            4
     number of electrons       =       156.00
     number of Kohn-Sham states=           94
     kinetic-energy cutoff     =      48.0000  Ry
     charge density cutoff     =     457.0000  Ry
     scf convergence threshold =      1.0E-07
     mixing beta               =       0.5000
     number of iterations used =            8  plain     mixing
     Exchange-correlation= SLA  PW   PBX  PBC
                           (   1   4   3   4   0   0   0)

     celldm(1)=  18.927497  celldm(2)=   0.000000  celldm(3)=   1.797125
     celldm(4)=   0.000000  celldm(5)=   0.000000  celldm(6)=   0.000000

     crystal axes: (cart. coord. in units of alat)
               a(1) = (   1.000000   0.000000   0.000000 )  
               a(2) = (  -0.500000   0.866025   0.000000 )  
               a(3) = (   0.000000   0.000000   1.797125 )  

     reciprocal axes: (cart. coord. in units 2 pi/alat)
               b(1) = (  1.000000  0.577350  0.000000 )  
               b(2) = (  0.000000  1.154701  0.000000 )  
               b(3) = (  0.000000  0.000000  0.556444 )  


     PseudoPot. # 1 for B  read from file:
     /home/sf05/q-e-qe-6.7MaX-Release/pseudo/B.pbe-n-kjpaw_psl.1.0.0.UPF
     MD5 check sum: d9c678ba5d3b2fd7b74e61139c9288d8
     Pseudo is Projector augmented-wave + core cor, Zval =  3.0
     Generated using "atomic" code by A. Dal Corso  v.5.1.2
     Shape of augmentation charge: PSQ
     Using radial grid of 1059 points,  4 beta functions with: 
                l(1) =   0
                l(2) =   0
                l(3) =   1
                l(4) =   1
     Q(r) pseudized with 0 coefficients 


     PseudoPot. # 2 for N  read from file:
     /home/sf05/q-e-qe-6.7MaX-Release/pseudo/N.pbe-n-kjpaw_psl.1.0.0.UPF
     MD5 check sum: e0e4e94a9c4025c5b51bd7d8793849bd
     Pseudo is Projector augmented-wave + core cor, Zval =  5.0
     Generated using "atomic" code by A. Dal Corso  v.5.1.2
     Shape of augmentation charge: PSQ
     Using radial grid of 1085 points,  4 beta functions with: 
                l(1) =   0
                l(2) =   0
                l(3) =   1
                l(4) =   1
     Q(r) pseudized with 0 coefficients 


     PseudoPot. # 3 for Cr read from file:
     /home/sf05/q-e-qe-6.7MaX-Release/pseudo/Cr.pbe-spn-kjpaw_psl.1.0.0.UPF
     MD5 check sum: 198f1a2427a48552563eee314eba32ba
     Pseudo is Projector augmented-wave + core cor, Zval = 14.0
     Generated using &quot;atomic&quot; code by A. Dal Corso  v.6.3
     Shape of augmentation charge: PSQ
     Using radial grid of 1183 points,  6 beta functions with: 
                l(1) =   0
                l(2) =   0
                l(3) =   1
                l(4) =   1
                l(5) =   2
                l(6) =   2
     Q(r) pseudized with 0 coefficients 


     PseudoPot. # 4 for Cr read from file:
     /home/sf05/q-e-qe-6.7MaX-Release/pseudo/Cr.pbe-spn-kjpaw_psl.1.0.0.UPF
     MD5 check sum: 198f1a2427a48552563eee314eba32ba
     Pseudo is Projector augmented-wave + core cor, Zval = 14.0
     Generated using &quot;atomic&quot; code by A. Dal Corso  v.6.3
     Shape of augmentation charge: PSQ
     Using radial grid of 1183 points,  6 beta functions with: 
                l(1) =   0
                l(2) =   0
                l(3) =   1
                l(4) =   1
                l(5) =   2
                l(6) =   2
     Q(r) pseudized with 0 coefficients 


     atomic species   valence    mass     pseudopotential
        B              3.00    10.81100     B ( 1.00)
        N              5.00    14.00674     N ( 1.00)
        Cr1           14.00    51.99610     Cr( 1.00)
        Cr2           14.00    51.99610     Cr( 1.00)

     Starting magnetic structure 
     atomic species   magnetization
        B            0.000
        N            0.000
        Cr1          1.000
        Cr2          1.000

     No symmetry found



   Cartesian axes

     site n.     atom                  positions (alat units)
         1           B   tau(   1) = (  -0.1250000   0.2165064   0.8985623  )
         2           B   tau(   2) = (   0.3750000   0.6495191   0.8985623  )
         3           B   tau(   3) = (   0.2500000   0.0000000   0.8985623  )
         4           B   tau(   4) = (   0.7500000   0.0000000   0.8985623  )
         5           B   tau(   5) = (   0.1250000   0.2165064   0.8985623  )
         6           B   tau(   6) = (  -0.3750000   0.6495191   0.8985623  )
         7           N   tau(   7) = (   0.7500005   0.2886748   0.8985623  )
         8           N   tau(   8) = (   0.3750005   0.5051812   0.8985623  )
         9           N   tau(   9) = (   0.3750005   0.0721685   0.8985623  )
        10           N   tau(  10) = (   0.6250005   0.0721685   0.8985623  )
        11           N   tau(  11) = (   0.2500005   0.2886748   0.8985623  )
        12           N   tau(  12) = (   0.6250005   0.5051812   0.8985623  )
        13           N   tau(  13) = (   0.0000005   0.2886748   0.8985623  )
        14           N   tau(  14) = (   0.2500005   0.7216875   0.8985623  )
        15           N   tau(  15) = (  -0.2499995   0.7216875   0.8985623  )
        16           B   tau(  16) = (   0.0000000   0.4330127   0.8985623  )
        17           B   tau(  17) = (   0.1250000   0.6495191   0.8985623  )
        18           B   tau(  18) = (  -0.1250000   0.6495191   0.8985623  )
        19           B   tau(  19) = (   0.3750000   0.2165064   0.8985623  )
        20           B   tau(  20) = (   0.6250000   0.2165064   0.8985623  )
        21           B   tau(  21) = (   0.5000000   0.4330127   0.8985623  )
        22           N   tau(  22) = (   0.5000005   0.2886748   0.8985623  )
        23           B   tau(  23) = (  -0.2500000   0.4330127   0.8985623  )
        24           B   tau(  24) = (   0.2500000   0.4330127   0.8985623  )
        25           B   tau(  25) = (   0.5000000   0.0000000   0.8985623  )
        26           N   tau(  26) = (  -0.1249995   0.5051812   0.8985623  )
        27           N   tau(  27) = (   0.1250005   0.5051812   0.8985623  )
        28           N   tau(  28) = (   0.0000005   0.7216875   0.8985623  )
        29           N   tau(  29) = (   0.5000005   0.7216875   0.8985623  )
        30           N   tau(  30) = (   0.1250005   0.0721685   0.8985623  )
        31           N   tau(  31) = (   0.8750005   0.0721685   0.8985623  )
        32           B   tau(  32) = (   0.0000000   0.0000000   0.8985623  )
        33           Cr1 tau(  33) = (   0.3900000   0.2598076   1.2040735  )
        34           Cr2 tau(  34) = (   0.1100000   0.2598076   1.2040735  )

     number of k points=    15  Gaussian smearing, width (Ry)=  0.0000
                       cart. coord. in units 2pi/alat
        k(    1) = (   0.1666667   0.2886751   0.0000000), wk =   0.0740741
        k(    2) = (   0.1666667  -0.4811252   0.0000000), wk =   0.0740741
        k(    3) = (   0.1666667  -0.0962250   0.0000000), wk =   0.0740741
        k(    4) = (  -0.5000000  -0.8660254   0.0000000), wk =   0.0370370
        k(    5) = (  -0.1666667   0.2886751   0.0000000), wk =   0.0740741
        k(    6) = (   0.3333333   0.0000000   0.0000000), wk =   0.0740741
        k(    7) = (  -0.1666667  -0.4811252   0.0000000), wk =   0.0740741
        k(    8) = (   0.5000000  -0.0962250   0.0000000), wk =   0.0740741
        k(    9) = (  -0.3333333  -0.3849002   0.0000000), wk =   0.0740741
        k(   10) = (   0.5000000   0.0962250   0.0000000), wk =   0.0740741
        k(   11) = (  -0.3333333   0.3849002   0.0000000), wk =   0.0740741
        k(   12) = (  -0.1666667  -0.0962250   0.0000000), wk =   0.0740741
        k(   13) = (  -0.0000000  -0.1924501   0.0000000), wk =   0.0740741
        k(   14) = (   0.5000000  -0.8660254   0.0000000), wk =   0.0370370
        k(   15) = (  -1.0000000   0.0000000   0.0000000), wk =   0.0370370

     Dense  grid:  1741401 G-vectors     FFT dimensions: ( 135, 135, 240)

     Smooth grid:   474235 G-vectors     FFT dimensions: (  90,  90, 160)

     Estimated max dynamical RAM per process >     218.62 MB

     Estimated total dynamical RAM >      10.25 GB
     Generating pointlists ...
     new r_m :   0.0595 (alat units)  1.1269 (a.u.) for type    1
     new r_m :   0.0595 (alat units)  1.1269 (a.u.) for type    2
     new r_m :   0.1155 (alat units)  2.1861 (a.u.) for type    3
     new r_m :   0.1155 (alat units)  2.1861 (a.u.) for type    4

     Initial potential from superposition of free atoms

     starting charge  155.99382, renormalised to  156.00000

     negative rho (up, down):  6.707E-03 4.655E-04
     Starting wfcs are  148 randomized atomic wfcs
     Checking if some PAW data can be deallocated... 

     total cpu time spent up to now is       20.6 secs

     Self-consistent Calculation

     iteration #  1     ecut=    48.00 Ry     beta= 0.50
     Davidson diagonalization with overlap
     ethr =  1.00E-02,  avg # of iterations =  2.8

     negative rho (up, down):  4.895E-03 2.907E-03

     total cpu time spent up to now is       64.3 secs

     total energy              =   -1130.72364956 Ry
     estimated scf accuracy    <      11.38809765 Ry

     total magnetization       =    12.00 Bohr mag/cell
     absolute magnetization    =    12.11 Bohr mag/cell

     iteration #  2     ecut=    48.00 Ry     beta= 0.50
     Davidson diagonalization with overlap
     ethr =  7.30E-03,  avg # of iterations =  2.8

     negative rho (up, down):  8.293E-03 7.345E-03

     total cpu time spent up to now is      105.2 secs

     total energy              =   -1133.02582400 Ry
     estimated scf accuracy    <       3.51494019 Ry

     total magnetization       =    10.00 Bohr mag/cell
     absolute magnetization    =    10.13 Bohr mag/cell

     iteration #  3     ecut=    48.00 Ry     beta= 0.50
     Davidson diagonalization with overlap
     ethr =  2.25E-03,  avg # of iterations =  6.9

     negative rho (up, down):  3.584E-03 3.444E-03

     total cpu time spent up to now is      146.5 secs

     total energy              =   -1133.58502850 Ry
     estimated scf accuracy    <       0.74277135 Ry

     total magnetization       =    11.70 Bohr mag/cell
     absolute magnetization    =    11.76 Bohr mag/cell

     iteration #  4     ecut=    48.00 Ry     beta= 0.50
     Davidson diagonalization with overlap
     ethr =  4.76E-04,  avg # of iterations =  6.8

     negative rho (up, down):  7.282E-03 8.007E-03

     total cpu time spent up to now is      186.8 secs

     total energy              =   -1133.77045080 Ry
     estimated scf accuracy    <       0.51971508 Ry

     total magnetization       =    10.00 Bohr mag/cell
     absolute magnetization    =    10.02 Bohr mag/cell

     iteration #  5     ecut=    48.00 Ry     beta= 0.50
     Davidson diagonalization with overlap
     ethr =  3.33E-04,  avg # of iterations =  6.5

     negative rho (up, down):  4.754E-03 4.578E-03

     total cpu time spent up to now is      228.9 secs

     total energy              =   -1133.81407906 Ry
     estimated scf accuracy    <       0.04652146 Ry

     total magnetization       =    10.00 Bohr mag/cell
     absolute magnetization    =    10.02 Bohr mag/cell

     iteration #  6     ecut=    48.00 Ry     beta= 0.50
     Davidson diagonalization with overlap
     ethr =  2.98E-05,  avg # of iterations =  9.7

     negative rho (up, down):  3.730E-03 4.007E-03

     total cpu time spent up to now is      277.7 secs

     total energy              =   -1133.82272553 Ry
     estimated scf accuracy    <       0.02385979 Ry

     total magnetization       =    10.00 Bohr mag/cell
     absolute magnetization    =    10.02 Bohr mag/cell

     iteration #  7     ecut=    48.00 Ry     beta= 0.50
     Davidson diagonalization with overlap
     ethr =  1.53E-05,  avg # of iterations =  6.3

     negative rho (up, down):  3.335E-03 3.775E-03

     total cpu time spent up to now is      317.3 secs

     total energy              =   -1133.82687052 Ry
     estimated scf accuracy    <       0.00361075 Ry

     total magnetization       =    10.00 Bohr mag/cell
     absolute magnetization    =    10.02 Bohr mag/cell

     iteration #  8     ecut=    48.00 Ry     beta= 0.50
     Davidson diagonalization with overlap
     ethr =  2.31E-06,  avg # of iterations =  8.5

     negative rho (up, down):  3.228E-03 3.755E-03

     total cpu time spent up to now is      387.8 secs

     total energy              =   -1133.82792756 Ry
     estimated scf accuracy    <       0.00040586 Ry

     total magnetization       =    10.00 Bohr mag/cell
     absolute magnetization    =    10.01 Bohr mag/cell

     iteration #  9     ecut=    48.00 Ry     beta= 0.50
     Davidson diagonalization with overlap
     ethr =  2.60E-07,  avg # of iterations =  3.9

     negative rho (up, down):  3.160E-03 3.744E-03

     total cpu time spent up to now is      449.8 secs

     total energy              =   -1133.82811418 Ry
     estimated scf accuracy    <       0.00007231 Ry

     total magnetization       =    10.00 Bohr mag/cell
     absolute magnetization    =    10.01 Bohr mag/cell

     iteration # 10     ecut=    48.00 Ry     beta= 0.50
     Davidson diagonalization with overlap
     ethr =  4.64E-08,  avg # of iterations =  5.2

     negative rho (up, down):  3.157E-03 3.766E-03

     total cpu time spent up to now is      521.4 secs

     total energy              =   -1133.82818653 Ry
     estimated scf accuracy    <       0.00002200 Ry

     total magnetization       =    10.00 Bohr mag/cell
     absolute magnetization    =    10.01 Bohr mag/cell

     iteration # 11     ecut=    48.00 Ry     beta= 0.50
     Davidson diagonalization with overlap
     ethr =  1.41E-08,  avg # of iterations =  4.4

     negative rho (up, down):  3.145E-03 3.778E-03

     total cpu time spent up to now is      574.9 secs

     total energy              =   -1133.82821036 Ry
     estimated scf accuracy    <       0.00000838 Ry

     total magnetization       =    10.00 Bohr mag/cell
     absolute magnetization    =    10.01 Bohr mag/cell

     iteration # 12     ecut=    48.00 Ry     beta= 0.50
     Davidson diagonalization with overlap
     ethr =  5.37E-09,  avg # of iterations =  4.5

     negative rho (up, down):  3.139E-03 3.786E-03

     total cpu time spent up to now is      610.8 secs

     total energy              =   -1133.82821702 Ry
     estimated scf accuracy    <       0.00000097 Ry

     total magnetization       =    10.00 Bohr mag/cell
     absolute magnetization    =    10.01 Bohr mag/cell

     iteration # 13     ecut=    48.00 Ry     beta= 0.50
     Davidson diagonalization with overlap
     ethr =  6.21E-10,  avg # of iterations =  4.7

     negative rho (up, down):  3.135E-03 3.790E-03

     total cpu time spent up to now is      649.1 secs

     total energy              =   -1133.82821937 Ry
     estimated scf accuracy    <       0.00000021 Ry

     total magnetization       =    10.00 Bohr mag/cell
     absolute magnetization    =    10.01 Bohr mag/cell

     iteration # 14     ecut=    48.00 Ry     beta= 0.50
     Davidson diagonalization with overlap
     ethr =  1.32E-10,  avg # of iterations =  4.9

     negative rho (up, down):  3.133E-03 3.791E-03
 
     Magnetic moment per site:
     atom:    1    charge:    0.8810    magn:    0.0007    constr:    0.0000
     atom:    2    charge:    0.8803    magn:    0.0002    constr:    0.0000
     atom:    3    charge:    0.8798    magn:    0.0004    constr:    0.0000
     atom:    4    charge:    0.8805    magn:    0.0001    constr:    0.0000
     atom:    5    charge:    0.8807    magn:    0.0005    constr:    0.0000
     atom:    6    charge:    0.8803    magn:    0.0001    constr:    0.0000
     atom:    7    charge:    2.8610    magn:    0.0002    constr:    0.0000
     atom:    8    charge:    2.8607    magn:    0.0018    constr:    0.0000
     atom:    9    charge:    2.8606    magn:    0.0047    constr:    0.0000
     atom:   10    charge:    2.8609    magn:    0.0007    constr:    0.0000
     atom:   11    charge:    2.8605    magn:    0.0081    constr:    0.0000
     atom:   12    charge:    2.8610    magn:    0.0003    constr:    0.0000
     atom:   13    charge:    2.8596    magn:    0.0052    constr:    0.0000
     atom:   14    charge:    2.8599    magn:    0.0002    constr:    0.0000
     atom:   15    charge:    2.8599    magn:    0.0000    constr:    0.0000
     atom:   16    charge:    0.8802    magn:    0.0004    constr:    0.0000
     atom:   17    charge:    0.8799    magn:    0.0002    constr:    0.0000
     atom:   18    charge:    0.8800    magn:    0.0001    constr:    0.0000
     atom:   19    charge:    0.8801    magn:    0.0005    constr:    0.0000
     atom:   20    charge:    0.8804    magn:    0.0007    constr:    0.0000
     atom:   21    charge:    0.8799    magn:    0.0004    constr:    0.0000
     atom:   22    charge:    2.8609    magn:    0.0052    constr:    0.0000
     atom:   23    charge:    0.8803    magn:    0.0002    constr:    0.0000
     atom:   24    charge:    0.8793    magn:    0.0003    constr:    0.0000
     atom:   25    charge:    0.8800    magn:    0.0003    constr:    0.0000
     atom:   26    charge:    2.8599    magn:    0.0003    constr:    0.0000
     atom:   27    charge:    2.8596    magn:    0.0018    constr:    0.0000
     atom:   28    charge:    2.8598    magn:    0.0002    constr:    0.0000
     atom:   29    charge:    2.8596    magn:    0.0002    constr:    0.0000
     atom:   30    charge:    2.8593    magn:    0.0047    constr:    0.0000
     atom:   31    charge:    2.8596    magn:    0.0007    constr:    0.0000
     atom:   32    charge:    0.8803    magn:    0.0003    constr:    0.0000
     atom:   33    charge:   12.4868    magn:    4.2153    constr:    0.0000
     atom:   34    charge:   12.4869    magn:    4.2153    constr:    0.0000

     total cpu time spent up to now is      688.2 secs

     End of self-consistent calculation

 ------ SPIN UP ------------


          k = 0.1667 0.2887 0.0000 ( 59267 PWs)   bands (ev):

   -72.8949 -72.8855 -44.4470 -44.3573 -44.2969 -44.2880 -44.2713 -44.2619
   -21.2458 -20.6608 -20.6532 -20.1086 -20.0897 -19.5879 -19.5797 -19.0981
   -18.6975 -18.6889 -18.4610 -18.4440 -18.1930 -18.0843 -18.0755 -17.8478
   -12.4837 -12.2087 -12.1969 -11.8205 -11.8154 -11.6567 -11.1916 -11.1871
   -10.3906 -10.3669 -10.1169 -10.1128  -9.5881  -9.5865  -8.8422  -8.8232
    -8.8187  -8.7667  -8.7580  -8.5948  -8.1955  -8.0511  -8.0168  -7.8294
    -7.8239  -7.4369  -7.4356  -7.2874  -7.2533  -7.2076  -7.2041  -6.9636
    -6.9488  -6.5642  -6.5393  -6.1525  -6.1509  -5.8709  -5.4168  -5.2927
    -5.2770  -5.1986  -4.9194  -4.8925  -4.5050  -4.3557  -4.3394  -3.9785
    -2.8997  -2.0728  -2.0000  -1.8652  -1.6705  -1.6119  -1.4948  -1.4797
    -1.4298  -1.3632  -1.3065  -0.6953   0.6488   0.9902   1.0494   1.1482
     1.2784   1.4655   1.4969   1.5883   1.6071   1.7723

          k = 0.1667-0.4811 0.0000 ( 59291 PWs)   bands (ev):

   -72.8949 -72.8855 -44.4470 -44.3573 -44.2969 -44.2880 -44.2713 -44.2619
   -21.1157 -20.9105 -20.7218 -20.1597 -19.8031 -19.4652 -19.3153 -19.1738
   -19.0126 -18.7780 -18.6402 -18.5417 -18.1475 -18.0869 -17.9208 -17.7221
   -12.3480 -12.1127 -12.0428 -11.9052 -11.6790 -11.6565 -11.5514 -10.9401
   -10.8895 -10.6233 -10.5213  -9.8591  -9.6922  -9.3346  -9.1095  -8.6694
    -8.6216  -8.5520  -8.3873  -8.3657  -8.1599  -8.1240  -8.0621  -8.0479
    -7.6873  -7.6218  -7.4931  -7.4722  -7.3567  -7.1697  -7.0658  -6.8607
    -6.6204  -6.3880  -6.1770  -6.1561  -5.9737  -5.9274  -5.7822  -5.7432
    -5.4498  -5.3978  -5.2100  -5.0395  -4.4437  -4.3457  -4.0891  -3.7660
    -2.8970  -2.0728  -1.9996  -1.8618  -1.6693  -1.6122  -1.4977  -1.4806
    -1.4310  -1.3628  -1.3064  -0.6990   0.5640   0.9798   1.0517   1.1177
     1.2065   1.2566   1.3585   1.8454   1.8992   2.1398

          k = 0.1667-0.0962 0.0000 ( 59226 PWs)   bands (ev):

   -72.8949 -72.8855 -44.4470 -44.3573 -44.2969 -44.2879 -44.2713 -44.2619
   -21.3122 -20.5350 -20.3442 -20.3376 -19.9862 -19.9803 -19.8038 -18.7271
   -18.7225 -18.3772 -18.3615 -18.3567 -18.2712 -18.2546 -18.0745 -18.0702
   -12.5091 -12.4989 -12.4065 -11.5797 -11.5757 -11.4298 -11.4140 -10.9248
   -10.9223  -9.9275  -9.9258  -9.6749  -9.3777  -9.3676  -9.2288  -9.2266
    -9.0404  -9.0389  -8.9236  -8.3217  -8.3203  -7.9020  -7.8959  -7.8824
    -7.8436  -7.7686  -7.6105  -7.5803  -7.1359  -7.0909  -6.9579  -6.8861
    -6.8842  -6.8498  -6.5289  -6.5273  -6.2558  -5.3503  -5.3173  -5.1417
    -5.0636  -4.8117  -4.7888  -4.7564  -4.6218  -4.5970  -4.3520  -4.3302
    -2.9025  -2.0728  -2.0004  -1.8685  -1.6729  -1.6115  -1.4922  -1.4789
    -1.4287  -1.3636  -1.3067  -0.6912   0.7432   0.9541   1.0134   1.1724
     1.2879   1.3282   1.5781   1.5880   1.6797   1.9233

          k =-0.5000-0.8660 0.0000 ( 59292 PWs)   bands (ev):

   -72.8949 -72.8855 -44.4470 -44.3574 -44.2969 -44.2880 -44.2713 -44.2619
   -21.0512 -21.0431 -20.4680 -20.4628 -19.4272 -19.4248 -19.4093 -19.4035
   -18.9928 -18.9852 -18.3279 -18.3240 -18.3162 -18.3016 -17.7907 -17.7878
   -12.0707 -12.0686 -12.0641 -12.0526 -11.8756 -11.8730 -11.3291 -11.3253
   -10.2331 -10.2323 -10.1345 -10.1295 -10.1280 -10.1247  -8.5904  -8.5503
    -8.5464  -8.5446  -8.5435  -8.5349  -7.8639  -7.8608  -7.8593  -7.8575
    -7.8203  -7.8176  -7.7811  -7.7523  -7.4911  -7.4818  -6.6089  -6.6076
    -6.3597  -6.3283  -6.3171  -6.2860  -6.1905  -6.1837  -5.7071  -5.6999
    -5.5461  -5.5380  -4.7252  -4.7160  -4.7068  -4.6848  -3.8854  -3.8676
    -2.8858  -2.0707  -1.9994  -1.8638  -1.6700  -1.6127  -1.4970  -1.4796
    -1.4378  -1.3671  -1.3072  -0.8177   0.7325   1.0592   1.0891   1.2069
     1.4614   1.5379   1.5726   1.6091   1.6289   1.7741

          k =-0.1667 0.2887 0.0000 ( 59267 PWs)   bands (ev):

   -72.8949 -72.8855 -44.4470 -44.3573 -44.2969 -44.2880 -44.2713 -44.2619
   -21.2458 -20.6609 -20.6532 -20.1086 -20.0897 -19.5879 -19.5797 -19.0981
   -18.6976 -18.6889 -18.4610 -18.4440 -18.1930 -18.0844 -18.0754 -17.8478
   -12.4836 -12.2087 -12.1969 -11.8205 -11.8154 -11.6567 -11.1916 -11.1870
   -10.3906 -10.3668 -10.1169 -10.1128  -9.5882  -9.5865  -8.8422  -8.8232
    -8.8187  -8.7667  -8.7580  -8.5948  -8.1955  -8.0511  -8.0169  -7.8294
    -7.8239  -7.4369  -7.4356  -7.2874  -7.2533  -7.2076  -7.2040  -6.9637
    -6.9489  -6.5642  -6.5393  -6.1525  -6.1508  -5.8708  -5.4169  -5.2927
    -5.2770  -5.1985  -4.9193  -4.8925  -4.5050  -4.3557  -4.3394  -3.9785
    -2.8997  -2.0728  -2.0000  -1.8652  -1.6705  -1.6119  -1.4948  -1.4797
    -1.4298  -1.3632  -1.3065  -0.6952   0.6488   0.9902   1.0494   1.1483
     1.2784   1.4654   1.4970   1.5883   1.6071   1.7724

          k = 0.3333 0.0000 0.0000 ( 59267 PWs)   bands (ev):

   -72.8949 -72.8855 -44.4470 -44.3573 -44.2969 -44.2879 -44.2713 -44.2619
   -21.2453 -20.6859 -20.6279 -20.1094 -20.0874 -19.6131 -19.5563 -19.1002
   -18.7141 -18.6672 -18.4643 -18.4426 -18.1888 -18.1071 -18.0592 -17.8470
   -12.4820 -12.2127 -12.1938 -11.8298 -11.8089 -11.6554 -11.2083 -11.1694
   -10.3908 -10.3654 -10.1318 -10.0995  -9.5944  -9.5787  -8.8425  -8.8265
    -8.8120  -8.7873  -8.7388  -8.5953  -8.1977  -8.1047  -7.9623  -7.8276
    -7.8232  -7.4444  -7.4283  -7.3004  -7.2342  -7.2165  -7.1944  -6.9665
    -6.9480  -6.6206  -6.4904  -6.1552  -6.1473  -5.8783  -5.4172  -5.3158
    -5.2417  -5.1987  -4.9292  -4.8851  -4.4967  -4.3887  -4.3199  -3.9770
    -2.8923  -2.0713  -1.9999  -1.8666  -1.6722  -1.6122  -1.4942  -1.4790
    -1.4334  -1.3661  -1.3069  -0.7777   0.7561   1.0598   1.2107   1.2491
     1.2661   1.4628   1.5151   1.5581   1.5953   1.7422

          k =-0.1667-0.4811 0.0000 ( 59291 PWs)   bands (ev):

   -72.8949 -72.8855 -44.4470 -44.3573 -44.2969 -44.2880 -44.2713 -44.2619
   -21.1157 -20.9105 -20.7218 -20.1597 -19.8031 -19.4652 -19.3153 -19.1738
   -19.0126 -18.7780 -18.6402 -18.5417 -18.1475 -18.0869 -17.9208 -17.7221
   -12.3480 -12.1127 -12.0428 -11.9052 -11.6790 -11.6565 -11.5514 -10.9401
   -10.8895 -10.6233 -10.5213  -9.8590  -9.6922  -9.3346  -9.1095  -8.6694
    -8.6215  -8.5521  -8.3873  -8.3657  -8.1599  -8.1240  -8.0621  -8.0480
    -7.6873  -7.6218  -7.4930  -7.4722  -7.3567  -7.1697  -7.0658  -6.8607
    -6.6204  -6.3881  -6.1770  -6.1561  -5.9737  -5.9273  -5.7821  -5.7432
    -5.4498  -5.3978  -5.2100  -5.0395  -4.4437  -4.3458  -4.0891  -3.7660
    -2.8970  -2.0728  -1.9996  -1.8618  -1.6693  -1.6122  -1.4977  -1.4806
    -1.4310  -1.3628  -1.3064  -0.6990   0.5640   0.9798   1.0517   1.1177
     1.2065   1.2566   1.3585   1.8455   1.8992   2.1397

          k = 0.5000-0.0962 0.0000 ( 59291 PWs)   bands (ev):

   -72.8949 -72.8855 -44.4470 -44.3574 -44.2969 -44.2880 -44.2713 -44.2619
   -21.1127 -20.9188 -20.7164 -20.1580 -19.8031 -19.4667 -19.3223 -19.1680
   -19.0139 -18.7783 -18.6297 -18.5484 -18.1358 -18.1039 -17.9171 -17.7218
   -12.3453 -12.1136 -12.0410 -11.9099 -11.6925 -11.6418 -11.5531 -10.9417
   -10.8860 -10.6205 -10.5244  -9.8572  -9.6924  -9.3354  -9.1090  -8.6581
    -8.6218  -8.5495  -8.4026  -8.3895  -8.1579  -8.1018  -8.0749  -8.0360
    -7.6830  -7.6224  -7.4921  -7.4735  -7.3506  -7.1705  -7.0671  -6.8590
    -6.6210  -6.3969  -6.1969  -6.1557  -5.9556  -5.9273  -5.7813  -5.7474
    -5.4508  -5.3981  -5.1842  -5.0554  -4.4197  -4.3780  -4.0839  -3.7656
    -2.8858  -2.0707  -1.9994  -1.8638  -1.6706  -1.6126  -1.4970  -1.4797
    -1.4377  -1.3672  -1.3072  -0.8174   0.7158   1.0474   1.1023   1.2144
     1.2879   1.3586   1.5043   1.7634   1.8446   1.8770

          k =-0.3333-0.3849 0.0000 ( 59291 PWs)   bands (ev):

   -72.8949 -72.8855 -44.4470 -44.3573 -44.2969 -44.2880 -44.2713 -44.2619
   -21.1138 -20.9159 -20.7184 -20.1577 -19.8050 -19.4651 -19.3169 -19.1715
   -19.0172 -18.7762 -18.6311 -18.5479 -18.1380 -18.1010 -17.9173 -17.7220
   -12.3472 -12.1101 -12.0441 -11.9074 -11.6806 -11.6551 -11.5527 -10.9413
   -10.8867 -10.6201 -10.5245  -9.8571  -9.6924  -9.3359  -9.1102  -8.6613
    -8.6208  -8.5514  -8.3893  -8.3872  -8.1593  -8.1104  -8.0622  -8.0505
    -7.6836  -7.6207  -7.4986  -7.4671  -7.3488  -7.1705  -7.0677  -6.8680
    -6.6192  -6.3893  -6.1790  -6.1580  -5.9683  -5.9256  -5.7813  -5.7581
    -5.4508  -5.3910  -5.1856  -5.0566  -4.4222  -4.3748  -4.0835  -3.7659
    -2.8896  -2.0715  -1.9994  -1.8631  -1.6697  -1.6125  -1.4973  -1.4800
    -1.4357  -1.3657  -1.3070  -0.7813   0.6660   1.0359   1.1122   1.2070
     1.2288   1.3292   1.3776   1.8259   1.8967   1.9288

          k = 0.5000 0.0962 0.0000 ( 59291 PWs)   bands (ev):

   -72.8949 -72.8855 -44.4470 -44.3574 -44.2969 -44.2880 -44.2713 -44.2619
   -21.1127 -20.9188 -20.7164 -20.1580 -19.8031 -19.4667 -19.3223 -19.1680
   -19.0139 -18.7783 -18.6297 -18.5484 -18.1358 -18.1039 -17.9171 -17.7218
   -12.3453 -12.1136 -12.0410 -11.9100 -11.6925 -11.6417 -11.5531 -10.9416
   -10.8860 -10.6205 -10.5245  -9.8572  -9.6925  -9.3354  -9.1089  -8.6581
    -8.6218  -8.5495  -8.4026  -8.3895  -8.1579  -8.1018  -8.0748  -8.0359
    -7.6831  -7.6223  -7.4921  -7.4736  -7.3506  -7.1705  -7.0670  -6.8590
    -6.6209  -6.3969  -6.1969  -6.1556  -5.9556  -5.9272  -5.7814  -5.7474
    -5.4508  -5.3981  -5.1842  -5.0554  -4.4197  -4.3780  -4.0839  -3.7656
    -2.8858  -2.0707  -1.9994  -1.8638  -1.6706  -1.6126  -1.4970  -1.4797
    -1.4377  -1.3672  -1.3072  -0.8174   0.7158   1.0474   1.1023   1.2144
     1.2879   1.3586   1.5043   1.7633   1.8445   1.8772

          k =-0.3333 0.3849 0.0000 ( 59291 PWs)   bands (ev):

   -72.8949 -72.8855 -44.4470 -44.3573 -44.2969 -44.2880 -44.2713 -44.2619
   -21.1138 -20.9159 -20.7184 -20.1577 -19.8050 -19.4651 -19.3169 -19.1715
   -19.0172 -18.7762 -18.6311 -18.5479 -18.1379 -18.1010 -17.9173 -17.7220
   -12.3472 -12.1101 -12.0441 -11.9074 -11.6807 -11.6552 -11.5526 -10.9413
   -10.8867 -10.6201 -10.5245  -9.8571  -9.6924  -9.3358  -9.1102  -8.6613
    -8.6209  -8.5514  -8.3893  -8.3872  -8.1593  -8.1104  -8.0622  -8.0504
    -7.6835  -7.6207  -7.4986  -7.4671  -7.3488  -7.1705  -7.0677  -6.8680
    -6.6193  -6.3893  -6.1790  -6.1580  -5.9683  -5.9257  -5.7813  -5.7581
    -5.4507  -5.3910  -5.1856  -5.0566  -4.4222  -4.3748  -4.0835  -3.7659
    -2.8896  -2.0715  -1.9994  -1.8631  -1.6697  -1.6125  -1.4973  -1.4800
    -1.4357  -1.3657  -1.3070  -0.7813   0.6660   1.0359   1.1122   1.2069
     1.2288   1.3292   1.3776   1.8261   1.8967   1.9287

          k =-0.1667-0.0962 0.0000 ( 59226 PWs)   bands (ev):

   -72.8949 -72.8855 -44.4470 -44.3573 -44.2969 -44.2879 -44.2713 -44.2619
   -21.3122 -20.5350 -20.3442 -20.3376 -19.9862 -19.9803 -19.8038 -18.7271
   -18.7225 -18.3772 -18.3615 -18.3567 -18.2712 -18.2546 -18.0745 -18.0702
   -12.5091 -12.4990 -12.4065 -11.5797 -11.5757 -11.4298 -11.4140 -10.9248
   -10.9223  -9.9275  -9.9258  -9.6749  -9.3777  -9.3676  -9.2288  -9.2267
    -9.0404  -9.0390  -8.9236  -8.3218  -8.3204  -7.9020  -7.8958  -7.8824
    -7.8436  -7.7687  -7.6105  -7.5803  -7.1359  -7.0909  -6.9579  -6.8861
    -6.8841  -6.8498  -6.5288  -6.5272  -6.2558  -5.3503  -5.3173  -5.1416
    -5.0637  -4.8117  -4.7888  -4.7564  -4.6218  -4.5970  -4.3520  -4.3302
    -2.9025  -2.0728  -2.0004  -1.8685  -1.6729  -1.6115  -1.4922  -1.4789
    -1.4287  -1.3636  -1.3067  -0.6912   0.7432   0.9541   1.0134   1.1724
     1.2879   1.3282   1.5781   1.5881   1.6797   1.9233

          k =-0.0000-0.1925 0.0000 ( 59226 PWs)   bands (ev):

   -72.8949 -72.8855 -44.4470 -44.3573 -44.2969 -44.2880 -44.2713 -44.2619
   -21.3123 -20.5295 -20.3578 -20.3334 -19.9884 -19.9701 -19.8080 -18.7329
   -18.7122 -18.4054 -18.3594 -18.3495 -18.2529 -18.2524 -18.0844 -18.0661
   -12.5135 -12.4955 -12.4056 -11.5852 -11.5702 -11.4306 -11.4116 -10.9269
   -10.9217  -9.9317  -9.9225  -9.6746  -9.3760  -9.3666  -9.2308  -9.2264
    -9.0402  -9.0399  -8.9242  -8.3242  -8.3175  -7.9019  -7.8954  -7.8623
    -7.8412  -7.7706  -7.6386  -7.5892  -7.1139  -7.0836  -6.9564  -6.8904
    -6.8816  -6.8633  -6.5323  -6.5228  -6.2566  -5.3460  -5.3107  -5.1418
    -5.0635  -4.8580  -4.7896  -4.7477  -4.5926  -4.5875  -4.3617  -4.3313
    -2.9061  -2.0736  -2.0004  -1.8678  -1.6720  -1.6114  -1.4925  -1.4794
    -1.4272  -1.3621  -1.3064  -0.6431   0.6731   0.8676   1.0065   1.1473
     1.2199   1.4004   1.5575   1.5880   1.7086   1.9591

          k = 0.5000-0.8660 0.0000 ( 59292 PWs)   bands (ev):

   -72.8949 -72.8855 -44.4470 -44.3574 -44.2969 -44.2880 -44.2713 -44.2619
   -21.0512 -21.0430 -20.4680 -20.4628 -19.4272 -19.4248 -19.4093 -19.4035
   -18.9929 -18.9851 -18.3279 -18.3240 -18.3163 -18.3015 -17.7907 -17.7877
   -12.0707 -12.0686 -12.0642 -12.0525 -11.8756 -11.8730 -11.3291 -11.3252
   -10.2332 -10.2323 -10.1346 -10.1295 -10.1280 -10.1247  -8.5904  -8.5503
    -8.5465  -8.5447  -8.5434  -8.5348  -7.8639  -7.8609  -7.8594  -7.8575
    -7.8203  -7.8177  -7.7811  -7.7523  -7.4911  -7.4819  -6.6088  -6.6075
    -6.3597  -6.3283  -6.3171  -6.2860  -6.1905  -6.1835  -5.7072  -5.6999
    -5.5462  -5.5380  -4.7252  -4.7160  -4.7067  -4.6848  -3.8854  -3.8676
    -2.8858  -2.0707  -1.9994  -1.8638  -1.6700  -1.6127  -1.4970  -1.4796
    -1.4378  -1.3671  -1.3072  -0.8177   0.7325   1.0593   1.0891   1.2069
     1.4614   1.5379   1.5726   1.6090   1.6289   1.7741

          k =-1.0000 0.0000 0.0000 ( 59292 PWs)   bands (ev):

   -72.8949 -72.8855 -44.4471 -44.3573 -44.2969 -44.2880 -44.2713 -44.2619
   -21.0747 -21.0165 -20.4793 -20.4565 -19.4431 -19.4071 -19.4060 -19.4018
   -19.0141 -18.9667 -18.3790 -18.3131 -18.3017 -18.2758 -17.7998 -17.7809
   -12.1144 -12.0664 -12.0431 -12.0295 -11.8832 -11.8649 -11.3489 -11.3061
   -10.2520 -10.2313 -10.1320 -10.1289 -10.1228 -10.1184  -8.6342  -8.5782
    -8.5487  -8.5307  -8.5126  -8.4881  -7.8807  -7.8710  -7.8600  -7.8493
    -7.8145  -7.8103  -7.7944  -7.7551  -7.5132  -7.4624  -6.6131  -6.5997
    -6.3748  -6.3217  -6.2937  -6.2786  -6.2076  -6.1691  -5.7461  -5.6699
    -5.5657  -5.5190  -4.8148  -4.7221  -4.6619  -4.6362  -3.8934  -3.8628
    -2.9007  -2.0733  -1.9998  -1.8611  -1.6690  -1.6121  -1.4977  -1.4807
    -1.4283  -1.3614  -1.3060  -0.6516   0.5235   0.8645   1.0436   1.0960
     1.2219   1.4355   1.5751   1.6215   1.6394   1.9317

 ------ SPIN DOWN ----------


          k = 0.1667 0.2887 0.0000 ( 59267 PWs)   bands (ev):

   -68.6996 -68.6888 -40.3795 -40.2740 -40.1224 -40.1117 -40.0728 -40.0616
   -21.2416 -20.6579 -20.6480 -20.1041 -20.0860 -19.5852 -19.5743 -19.0939
   -18.6942 -18.6831 -18.4566 -18.4400 -18.1881 -18.0810 -18.0709 -17.8434
   -12.4806 -12.2055 -12.1943 -11.8180 -11.8128 -11.6544 -11.1893 -11.1834
   -10.3875 -10.3637 -10.1146 -10.1090  -9.5856  -9.5833  -8.8279  -8.8154
    -8.8130  -8.7649  -8.7547  -8.5922  -8.1930  -8.0248  -8.0070  -7.8267
    -7.8214  -7.4339  -7.4318  -7.2671  -7.2387  -7.2056  -7.2009  -6.9609
    -6.9465  -6.5410  -6.5310  -6.1499  -6.1481  -5.8540  -5.4137  -5.2728
    -5.2606  -5.1958  -4.9037  -4.8793  -4.4880  -4.3410  -4.3279  -3.9640
    -1.4481   0.3935   0.9067   1.0442   1.0692   1.1733   1.2308   1.3369
     1.3741   1.4944   1.5074   1.5738   1.6474   1.6960   1.8532   2.0103
     2.0382   2.1200   2.1362   2.1960   2.2514   2.3060

          k = 0.1667-0.4811 0.0000 ( 59291 PWs)   bands (ev):

   -68.6996 -68.6888 -40.3795 -40.2740 -40.1223 -40.1117 -40.0729 -40.0615
   -21.1112 -20.9070 -20.7175 -20.1554 -19.7990 -19.4611 -19.3113 -19.1693
   -19.0085 -18.7739 -18.6345 -18.5384 -18.1416 -18.0845 -17.9162 -17.7176
   -12.3448 -12.1097 -12.0403 -11.9026 -11.6772 -11.6534 -11.5486 -10.9373
   -10.8861 -10.6197 -10.5187  -9.8556  -9.6893  -9.3314  -9.1067  -8.6441
    -8.6188  -8.5486  -8.3849  -8.3533  -8.1572  -8.1054  -8.0599  -8.0451
    -7.6843  -7.6191  -7.4904  -7.4697  -7.3378  -7.1663  -7.0634  -6.8438
    -6.6170  -6.3720  -6.1598  -6.1534  -5.9569  -5.9241  -5.7793  -5.7278
    -5.4471  -5.3822  -5.1868  -5.0299  -4.4229  -4.3385  -4.0742  -3.7520
    -1.4390   0.3824   0.8812   0.9963   1.0662   1.1382   1.1679   1.2202
     1.2810   1.4503   1.5275   1.7414   1.7653   1.8018   1.8809   2.0896
     2.1218   2.1375   2.1728   2.2063   2.2766   2.2990

          k = 0.1667-0.0962 0.0000 ( 59226 PWs)   bands (ev):

   -68.6996 -68.6888 -40.3795 -40.2740 -40.1224 -40.1117 -40.0728 -40.0615
   -21.3081 -20.5304 -20.3402 -20.3340 -19.9814 -19.9764 -19.8003 -18.7221
   -18.7182 -18.3726 -18.3576 -18.3524 -18.2666 -18.2499 -18.0703 -18.0667
   -12.5060 -12.4962 -12.4037 -11.5768 -11.5733 -11.4267 -11.4115 -10.9217
   -10.9197  -9.9244  -9.9230  -9.6716  -9.3745  -9.3648  -9.2254  -9.2236
    -9.0377  -9.0362  -8.9039  -8.3182  -8.3172  -7.8987  -7.8933  -7.8590
    -7.8395  -7.7662  -7.5923  -7.5697  -7.1089  -7.0798  -6.9551  -6.8834
    -6.8819  -6.8388  -6.5260  -6.5248  -6.2532  -5.3258  -5.3047  -5.1387
    -5.0608  -4.7949  -4.7729  -4.7411  -4.6062  -4.5837  -4.3347  -4.3207
    -1.4571   0.4072   0.9291   1.0058   1.0605   1.1091   1.1764   1.3369
     1.4161   1.5129   1.5871   1.6426   1.7443   1.8399   1.8865   1.9232
     2.0191   2.0437   2.1234   2.1798   2.2222   2.3041

          k =-0.5000-0.8660 0.0000 ( 59292 PWs)   bands (ev):

   -68.6996 -68.6888 -40.3795 -40.2740 -40.1224 -40.1118 -40.0728 -40.0615
   -21.0483 -21.0375 -20.4640 -20.4591 -19.4226 -19.4201 -19.4048 -19.4002
   -18.9903 -18.9795 -18.3238 -18.3189 -18.3152 -18.2944 -17.7861 -17.7837
   -12.0681 -12.0650 -12.0627 -12.0486 -11.8729 -11.8708 -11.3269 -11.3215
   -10.2301 -10.2295 -10.1309 -10.1267 -10.1247 -10.1220  -8.5600  -8.5456
    -8.5436  -8.5404  -8.5372  -8.5310  -7.8607  -7.8579  -7.8568  -7.8549
    -7.8162  -7.8142  -7.7628  -7.7411  -7.4895  -7.4785  -6.6055  -6.6051
    -6.3302  -6.3087  -6.3024  -6.2768  -6.1882  -6.1799  -5.6928  -5.6854
    -5.5444  -5.5342  -4.7074  -4.7013  -4.6819  -4.6807  -3.8681  -3.8572
    -1.4160   0.1488   0.9444   0.9857   1.0364   1.1870   1.2101   1.3577
     1.4711   1.5165   1.5858   1.7016   1.7441   1.8690   1.9132   1.9255
     1.9951   2.0678   2.1990   2.2401   2.2928   2.3327

          k =-0.1667 0.2887 0.0000 ( 59267 PWs)   bands (ev):

   -68.6996 -68.6888 -40.3795 -40.2740 -40.1224 -40.1117 -40.0728 -40.0616
   -21.2416 -20.6579 -20.6480 -20.1041 -20.0860 -19.5852 -19.5743 -19.0939
   -18.6942 -18.6830 -18.4566 -18.4400 -18.1881 -18.0810 -18.0709 -17.8434
   -12.4806 -12.2055 -12.1943 -11.8180 -11.8128 -11.6544 -11.1894 -11.1833
   -10.3875 -10.3637 -10.1146 -10.1090  -9.5856  -9.5833  -8.8278  -8.8153
    -8.8130  -8.7649  -8.7547  -8.5922  -8.1931  -8.0247  -8.0070  -7.8267
    -7.8214  -7.4339  -7.4318  -7.2671  -7.2387  -7.2055  -7.2008  -6.9609
    -6.9465  -6.5410  -6.5310  -6.1499  -6.1480  -5.8540  -5.4137  -5.2728
    -5.2606  -5.1957  -4.9036  -4.8792  -4.4880  -4.3410  -4.3279  -3.9640
    -1.4481   0.3935   0.9067   1.0442   1.0692   1.1733   1.2308   1.3368
     1.3741   1.4944   1.5074   1.5737   1.6475   1.6960   1.8532   2.0103
     2.0382   2.1201   2.1362   2.1960   2.2514   2.3060

          k = 0.3333 0.0000 0.0000 ( 59267 PWs)   bands (ev):

   -68.6996 -68.6888 -40.3795 -40.2740 -40.1224 -40.1117 -40.0728 -40.0616
   -21.2412 -20.6798 -20.6260 -20.1048 -20.0840 -19.6068 -19.5542 -19.0957
   -18.7077 -18.6653 -18.4595 -18.4387 -18.1848 -18.1000 -18.0571 -17.8427
   -12.4794 -12.2085 -12.1919 -11.8264 -11.8068 -11.6531 -11.2045 -11.1676
   -10.3874 -10.3627 -10.1269 -10.0979  -9.5909  -9.5767  -8.8280  -8.8198
    -8.8062  -8.7834  -8.7375  -8.5926  -8.1948  -8.0731  -7.9582  -7.8251
    -7.8209  -7.4397  -7.4260  -7.2761  -7.2254  -7.2132  -7.1927  -6.9632
    -6.9458  -6.5914  -6.4859  -6.1522  -6.1450  -5.8592  -5.4138  -5.2922
    -5.2326  -5.1959  -4.9115  -4.8735  -4.4815  -4.3679  -4.3104  -3.9631
    -1.4333   0.2283   0.9407   1.0394   1.0797   1.1472   1.1959   1.3851
     1.4819   1.5105   1.5369   1.6120   1.7668   1.8529   1.8903   1.9298
     2.0321   2.0531   2.1419   2.1930   2.2579   2.3954

          k =-0.1667-0.4811 0.0000 ( 59291 PWs)   bands (ev):

   -68.6996 -68.6888 -40.3795 -40.2740 -40.1223 -40.1117 -40.0729 -40.0615
   -21.1112 -20.9070 -20.7175 -20.1554 -19.7991 -19.4611 -19.3113 -19.1693
   -19.0085 -18.7739 -18.6345 -18.5384 -18.1416 -18.0845 -17.9162 -17.7176
   -12.3448 -12.1096 -12.0403 -11.9025 -11.6772 -11.6534 -11.5486 -10.9373
   -10.8861 -10.6197 -10.5187  -9.8556  -9.6893  -9.3315  -9.1068  -8.6441
    -8.6188  -8.5487  -8.3849  -8.3533  -8.1572  -8.1054  -8.0599  -8.0452
    -7.6843  -7.6192  -7.4904  -7.4696  -7.3378  -7.1663  -7.0633  -6.8438
    -6.6171  -6.3720  -6.1598  -6.1534  -5.9569  -5.9240  -5.7793  -5.7278
    -5.4471  -5.3822  -5.1867  -5.0299  -4.4229  -4.3385  -4.0742  -3.7520
    -1.4390   0.3824   0.8812   0.9963   1.0662   1.1382   1.1679   1.2202
     1.2810   1.4503   1.5275   1.7414   1.7653   1.8019   1.8809   2.0895
     2.1218   2.1375   2.1728   2.2064   2.2765   2.2990

          k = 0.5000-0.0962 0.0000 ( 59291 PWs)   bands (ev):

   -68.6996 -68.6888 -40.3795 -40.2740 -40.1224 -40.1117 -40.0728 -40.0616
   -21.1086 -20.9141 -20.7129 -20.1540 -19.7990 -19.4624 -19.3173 -19.1645
   -19.0096 -18.7740 -18.6259 -18.5440 -18.1320 -18.0983 -17.9132 -17.7174
   -12.3428 -12.1104 -12.0387 -11.9067 -11.6889 -11.6402 -11.5503 -10.9384
   -10.8832 -10.6175 -10.5213  -9.8540  -9.6896  -9.3322  -9.1063  -8.6365
    -8.6189  -8.5466  -8.3900  -8.3761  -8.1554  -8.0901  -8.0713  -8.0345
    -7.6806  -7.6197  -7.4895  -7.4709  -7.3334  -7.1672  -7.0643  -6.8428
    -6.6175  -6.3775  -6.1744  -6.1531  -5.9447  -5.9239  -5.7785  -5.7303
    -5.4480  -5.3825  -5.1685  -5.0412  -4.4043  -4.3625  -4.0706  -3.7519
    -1.4160   0.1506   0.9294   0.9798   1.0442   1.1516   1.1980   1.2224
     1.3309   1.5938   1.7102   1.7356   1.8183   1.8951   1.9591   1.9900
     2.0627   2.1465   2.2119   2.2595   2.2765   2.3186

          k =-0.3333-0.3849 0.0000 ( 59291 PWs)   bands (ev):

   -68.6996 -68.6888 -40.3795 -40.2740 -40.1223 -40.1117 -40.0728 -40.0616
   -21.1095 -20.9116 -20.7146 -20.1538 -19.8007 -19.4610 -19.3128 -19.1673
   -19.0125 -18.7722 -18.6270 -18.5436 -18.1337 -18.0962 -17.9133 -17.7176
   -12.3442 -12.1076 -12.0413 -11.9047 -11.6785 -11.6520 -11.5497 -10.9381
   -10.8837 -10.6170 -10.5215  -9.8540  -9.6897  -9.3325  -9.1072  -8.6385
    -8.6182  -8.5481  -8.3863  -8.3685  -8.1567  -8.0960  -8.0600  -8.0472
    -7.6811  -7.6182  -7.4953  -7.4653  -7.3323  -7.1672  -7.0648  -6.8488
    -6.6159  -6.3725  -6.1620  -6.1547  -5.9532  -5.9226  -5.7786  -5.7381
    -5.4479  -5.3778  -5.1695  -5.0415  -4.4067  -4.3598  -4.0703  -3.7520
    -1.4239   0.2159   0.9162   0.9790   1.0389   1.1682   1.2068   1.2445
     1.2875   1.4996   1.6846   1.7565   1.8370   1.8635   1.9566   2.0252
     2.0611   2.0983   2.1532   2.2315   2.2776   2.3224

          k = 0.5000 0.0962 0.0000 ( 59291 PWs)   bands (ev):

   -68.6996 -68.6888 -40.3795 -40.2740 -40.1224 -40.1117 -40.0728 -40.0616
   -21.1086 -20.9141 -20.7129 -20.1540 -19.7990 -19.4624 -19.3173 -19.1645
   -19.0096 -18.7740 -18.6259 -18.5440 -18.1320 -18.0983 -17.9132 -17.7174
   -12.3428 -12.1105 -12.0386 -11.9067 -11.6889 -11.6402 -11.5503 -10.9384
   -10.8832 -10.6175 -10.5213  -9.8540  -9.6897  -9.3322  -9.1063  -8.6365
    -8.6189  -8.5466  -8.3900  -8.3761  -8.1554  -8.0901  -8.0712  -8.0344
    -7.6807  -7.6197  -7.4895  -7.4710  -7.3334  -7.1672  -7.0643  -6.8428
    -6.6174  -6.3774  -6.1744  -6.1530  -5.9447  -5.9238  -5.7786  -5.7303
    -5.4480  -5.3825  -5.1685  -5.0411  -4.4043  -4.3624  -4.0706  -3.7519
    -1.4160   0.1506   0.9294   0.9798   1.0442   1.1516   1.1980   1.2225
     1.3309   1.5938   1.7102   1.7356   1.8183   1.8951   1.9591   1.9900
     2.0626   2.1466   2.2119   2.2595   2.2766   2.3185

          k =-0.3333 0.3849 0.0000 ( 59291 PWs)   bands (ev):

   -68.6996 -68.6888 -40.3795 -40.2740 -40.1223 -40.1117 -40.0728 -40.0616
   -21.1095 -20.9117 -20.7146 -20.1538 -19.8007 -19.4610 -19.3128 -19.1673
   -19.0125 -18.7722 -18.6270 -18.5436 -18.1337 -18.0962 -17.9133 -17.7176
   -12.3441 -12.1076 -12.0413 -11.9047 -11.6785 -11.6521 -11.5497 -10.9381
   -10.8837 -10.6170 -10.5215  -9.8540  -9.6896  -9.3324  -9.1072  -8.6385
    -8.6182  -8.5481  -8.3863  -8.3685  -8.1568  -8.0960  -8.0600  -8.0471
    -7.6811  -7.6182  -7.4954  -7.4652  -7.3324  -7.1672  -7.0649  -6.8488
    -6.6159  -6.3725  -6.1620  -6.1547  -5.9532  -5.9227  -5.7786  -5.7381
    -5.4478  -5.3778  -5.1696  -5.0415  -4.4067  -4.3598  -4.0703  -3.7520
    -1.4239   0.2159   0.9161   0.9790   1.0389   1.1682   1.2068   1.2445
     1.2875   1.4996   1.6846   1.7565   1.8370   1.8635   1.9566   2.0252
     2.0611   2.0983   2.1531   2.2315   2.2776   2.3224

          k =-0.1667-0.0962 0.0000 ( 59226 PWs)   bands (ev):

   -68.6996 -68.6888 -40.3795 -40.2740 -40.1224 -40.1117 -40.0728 -40.0615
   -21.3081 -20.5304 -20.3402 -20.3341 -19.9814 -19.9764 -19.8003 -18.7221
   -18.7182 -18.3726 -18.3576 -18.3524 -18.2666 -18.2499 -18.0703 -18.0667
   -12.5061 -12.4962 -12.4037 -11.5767 -11.5733 -11.4267 -11.4115 -10.9216
   -10.9197  -9.9245  -9.9230  -9.6715  -9.3745  -9.3648  -9.2254  -9.2237
    -9.0376  -9.0362  -8.9039  -8.3182  -8.3172  -7.8987  -7.8933  -7.8590
    -7.8394  -7.7663  -7.5923  -7.5697  -7.1089  -7.0798  -6.9552  -6.8834
    -6.8818  -6.8388  -6.5259  -6.5247  -6.2532  -5.3258  -5.3047  -5.1386
    -5.0609  -4.7949  -4.7729  -4.7411  -4.6062  -4.5837  -4.3347  -4.3207
    -1.4571   0.4072   0.9291   1.0058   1.0605   1.1091   1.1764   1.3369
     1.4161   1.5129   1.5872   1.6426   1.7443   1.8399   1.8865   1.9231
     2.0191   2.0437   2.1232   2.1800   2.2222   2.3041

          k =-0.0000-0.1925 0.0000 ( 59226 PWs)   bands (ev):

   -68.6996 -68.6888 -40.3795 -40.2740 -40.1224 -40.1117 -40.0728 -40.0615
   -21.3082 -20.5256 -20.3529 -20.3294 -19.9844 -19.9667 -19.8038 -18.7283
   -18.7083 -18.3978 -18.3553 -18.3453 -18.2505 -18.2491 -18.0798 -18.0619
   -12.5094 -12.4936 -12.4030 -11.5824 -11.5680 -11.4269 -11.4098 -10.9239
   -10.9188  -9.9284  -9.9196  -9.6715  -9.3732  -9.3639  -9.2272  -9.2231
    -9.0373  -9.0371  -8.9043  -8.3208  -8.3141  -7.8992  -7.8930  -7.8468
    -7.8352  -7.7679  -7.6139  -7.5737  -7.0983  -7.0701  -6.9539  -6.8875
    -6.8791  -6.8484  -6.5296  -6.5203  -6.2538  -5.3272  -5.2955  -5.1388
    -5.0606  -4.8313  -4.7715  -4.7332  -4.5862  -4.5768  -4.3455  -4.3174
    -1.4640   0.5299   0.9048   1.0040   1.0388   1.1386   1.1814   1.2779
     1.3645   1.4970   1.5209   1.5689   1.7499   1.8244   1.8541   1.9821
     2.0274   2.0611   2.0930   2.1685   2.2315   2.2757

          k = 0.5000-0.8660 0.0000 ( 59292 PWs)   bands (ev):

   -68.6996 -68.6888 -40.3795 -40.2740 -40.1224 -40.1118 -40.0728 -40.0615
   -21.0484 -21.0374 -20.4640 -20.4591 -19.4226 -19.4201 -19.4048 -19.4002
   -18.9904 -18.9794 -18.3238 -18.3189 -18.3153 -18.2943 -17.7861 -17.7837
   -12.0681 -12.0651 -12.0628 -12.0485 -11.8729 -11.8708 -11.3269 -11.3214
   -10.2301 -10.2295 -10.1309 -10.1267 -10.1247 -10.1220  -8.5600  -8.5456
    -8.5437  -8.5403  -8.5373  -8.5308  -7.8607  -7.8579  -7.8568  -7.8549
    -7.8162  -7.8142  -7.7628  -7.7411  -7.4896  -7.4786  -6.6054  -6.6050
    -6.3302  -6.3087  -6.3024  -6.2768  -6.1882  -6.1797  -5.6928  -5.6854
    -5.5445  -5.5342  -4.7074  -4.7013  -4.6819  -4.6806  -3.8681  -3.8572
    -1.4160   0.1488   0.9444   0.9857   1.0365   1.1870   1.2101   1.3577
     1.4710   1.5165   1.5857   1.7016   1.7441   1.8691   1.9131   1.9255
     1.9951   2.0678   2.1989   2.2400   2.2928   2.3326

          k =-1.0000 0.0000 0.0000 ( 59292 PWs)   bands (ev):

   -68.6996 -68.6888 -40.3795 -40.2740 -40.1224 -40.1117 -40.0728 -40.0615
   -21.0687 -21.0145 -20.4746 -20.4526 -19.4379 -19.4031 -19.4024 -19.3984
   -19.0076 -18.9647 -18.3702 -18.3075 -18.2993 -18.2752 -17.7951 -17.7766
   -12.1074 -12.0640 -12.0416 -12.0287 -11.8806 -11.8630 -11.3447 -11.3045
   -10.2471 -10.2275 -10.1293 -10.1264 -10.1199 -10.1160  -8.6010  -8.5737
    -8.5458  -8.5286  -8.5119  -8.4842  -7.8764  -7.8674  -7.8567  -7.8467
    -7.8081  -7.8080  -7.7762  -7.7404  -7.5092  -7.4613  -6.6103  -6.5973
    -6.3490  -6.3001  -6.2831  -6.2704  -6.2031  -6.1671  -5.7227  -5.6611
    -5.5612  -5.5177  -4.7839  -4.6985  -4.6565  -4.6348  -3.8781  -3.8493
    -1.4462   0.4981   0.8691   1.0306   1.0575   1.1609   1.2122   1.2654
     1.2782   1.3176   1.6087   1.6367   1.6775   1.7645   1.7729   1.8867
     2.0966   2.1523   2.1551   2.2148   2.2951   2.3212

     the Fermi energy is    -1.1338 ev

!    total energy              =   -1133.82822003 Ry

     total all-electron energy =     -6753.503923 Ry
     estimated scf accuracy    <       0.00000009 Ry
     smearing contrib. (-TS)   =      -0.00000000 Ry
     internal energy E=F+TS    =   -1133.82822003 Ry

     The total energy is F=E-TS. E is the sum of the following terms:
     one-electron contribution =   -3954.33418206 Ry
     hartree contribution      =    2005.35105627 Ry
     xc contribution           =    -186.02328271 Ry
     ewald contribution        =    1360.55434217 Ry
     DFT-D3 Dispersion         =      -0.13290501 Ry
     one-center paw contrib.   =    -359.24324868 Ry

     total magnetization       =    10.00 Bohr mag/cell
     absolute magnetization    =    10.01 Bohr mag/cell

     convergence has been achieved in  14 iterations

     Writing output data file ./mytmp/Crdimer0.14-0.3.save/
 
     init_run     :     18.66s CPU     20.24s WALL (       1 calls)
     electrons    :    585.06s CPU    667.83s WALL (       1 calls)

     Called by init_run:
     wfcinit      :     13.70s CPU     14.70s WALL (       1 calls)
     potinit      :      1.49s CPU      1.56s WALL (       1 calls)
     hinit0       :      1.52s CPU      1.62s WALL (       1 calls)

     Called by electrons:
     c_bands      :    465.19s CPU    522.22s WALL (      14 calls)
     sum_band     :     85.50s CPU    102.76s WALL (      14 calls)
     v_of_rho     :      7.94s CPU      9.07s WALL (      15 calls)
     newd         :     18.45s CPU     25.62s WALL (      15 calls)
     PAW_pot      :      7.44s CPU      7.55s WALL (      15 calls)
     mix_rho      :      1.00s CPU      1.23s WALL (      14 calls)

     Called by c_bands:
     init_us_2    :      5.00s CPU      5.05s WALL (     870 calls)
     cegterg      :    452.17s CPU    508.98s WALL (     420 calls)

     Called by *egterg:
     cdiaghg      :     29.45s CPU     47.77s WALL (    2756 calls)
     h_psi        :    266.23s CPU    299.17s WALL (    2786 calls)
     s_psi        :     27.01s CPU     27.23s WALL (    2786 calls)
     g_psi        :      0.66s CPU      0.68s WALL (    2336 calls)

     Called by h_psi:
     h_psi:calbec :     32.65s CPU     34.04s WALL (    2786 calls)
     vloc_psi     :    203.73s CPU    234.84s WALL (    2786 calls)
     add_vuspsi   :     27.73s CPU     28.12s WALL (    2786 calls)

     General routines
     calbec       :     43.18s CPU     44.90s WALL (    3206 calls)
     fft          :      9.90s CPU     15.31s WALL (     369 calls)
     ffts         :      0.12s CPU      0.13s WALL (      58 calls)
     fftw         :    213.80s CPU    249.33s WALL (  250004 calls)
     interpolate  :      0.45s CPU      0.52s WALL (      30 calls)
 
     Parallel routines
     fft_scatt_xy :     30.50s CPU     31.93s WALL (  250431 calls)
     fft_scatt_yz :    104.14s CPU    139.39s WALL (  250431 calls)
 
     PWSCF        :  10m 5.78s CPU  11m32.93s WALL

 
   This run was terminated on:  14:35:21  31Mar2021            

=------------------------------------------------------------------------------=
   JOB DONE.
=------------------------------------------------------------------------------=
