
     Program PWSCF v.6.7MaX starts on 31Mar2021 at 10:15:35 

     This program is part of the open-source Quantum ESPRESSO suite
     for quantum simulation of materials; please cite
         "P. Giannozzi et al., J. Phys.:Condens. Matter 21 395502 (2009);
         "P. Giannozzi et al., J. Phys.:Condens. Matter 29 465901 (2017);
          URL http://www.quantum-espresso.org", 
     in publications or presentations arising from this work. More details at
     http://www.quantum-espresso.org/quote

     Parallel version (MPI), running on    48 processors

     MPI processes distributed on     1 nodes
     R & G space division:  proc/nbgrp/npool/nimage =      48
     Reading input from Crdimer0.1-0.2.scf.in

     Current dimensions of program PWSCF are:
     Max number of different atomic species (ntypx) = 10
     Max number of k-points (npk) =  40000
     Max angular momentum in pseudopotentials (lmaxx) =  3
     file N.pbe-n-kjpaw_psl.1.0.0.UPF: wavefunction(s)  2S renormalized
     file Cr.pbe-spn-kjpaw_psl.1.0.0.UPF: wavefunction(s)  3S 3P 3D renormalized
     file Cr.pbe-spn-kjpaw_psl.1.0.0.UPF: wavefunction(s)  3S 3P 3D renormalized

     --------------------------------------------
     Parameters for DFT-D3 Dispersion Correction:
     --------------------------------------------
       Reference C6 values for interpolation: 

         atom   Coordination number   C6
         B          0.000           214.36
         B          0.971           150.74
         B          1.944           106.23
         B          2.913            62.89
         B          4.586            56.06
         N          0.000            50.54
         N          0.994            44.25
         N          2.014            39.35
         N          2.990            31.16
         Cr1        0.000          1381.48
         Cr1        1.827           571.38
         Cr1       10.619           306.69
         Cr2        0.000          1381.48
         Cr2        1.827           571.38
         Cr2       10.619           306.69

       Values used:

         atom   Coordination number  R0_AB[au]  C6      C8
         B          3.337            3.039     62.89   2505.97
         B          3.335            3.039     62.89   2506.01
         B          3.347            3.039     62.88   2505.71
         B          3.335            3.039     62.89   2506.01
         B          3.380            3.039     62.86   2504.72
         B          3.335            3.039     62.89   2506.00
         N          3.134            2.478     31.22    688.70
         N          3.135            2.478     31.22    688.69
         N          3.153            2.478     31.21    688.53
         N          3.135            2.478     31.22    688.69
         N          3.152            2.478     31.21    688.54
         N          3.134            2.478     31.22    688.70
         N          3.139            2.478     31.22    688.65
         N          3.134            2.478     31.22    688.70
         N          3.135            2.478     31.22    688.69
         B          3.336            3.039     62.89   2505.98
         B          3.335            3.039     62.89   2506.01
         B          3.335            3.039     62.89   2506.00
         B          3.380            3.039     62.86   2504.72
         B          3.337            3.039     62.89   2505.97
         B          3.336            3.039     62.89   2505.98
         N          3.139            2.478     31.22    688.65
         B          3.335            3.039     62.89   2506.01
         B          3.338            3.039     62.89   2505.93
         B          3.339            3.039     62.89   2505.91
         N          3.134            2.478     31.22    688.70
         N          3.135            2.478     31.22    688.69
         N          3.134            2.478     31.22    688.69
         N          3.134            2.478     31.22    688.69
         N          3.153            2.478     31.21    688.53
         N          3.135            2.478     31.22    688.69
         B          3.339            3.039     62.89   2505.91
         Cr1        1.101            3.252    607.36  56052.01
         Cr2        1.101            3.252    607.36  56052.01

         Molecular C6 ( Ry / a.u.^6 ) =     68825.47


     Subspace diagonalization in iterative solution of the eigenvalue problem:
     one sub-group per band group will be used
     scalapack distributed-memory algorithm (size of sub-group:  6*  6 procs)

 
     Parallelization info
     --------------------
     sticks:   dense  smooth     PW     G-vecs:    dense   smooth      PW
     Min         235      98     26                36277     9874    1408
     Max         236      99     27                36282     9883    1425
     Sum       11311    4741   1285              1741401   474235   68095
 


     bravais-lattice index     =            4
     lattice parameter (alat)  =      18.9275  a.u.
     unit-cell volume          =   10553.3021 (a.u.)^3
     number of atoms/cell      =           34
     number of atomic types    =            4
     number of electrons       =       156.00
     number of Kohn-Sham states=           94
     kinetic-energy cutoff     =      48.0000  Ry
     charge density cutoff     =     457.0000  Ry
     scf convergence threshold =      1.0E-07
     mixing beta               =       0.5000
     number of iterations used =            8  plain     mixing
     Exchange-correlation= SLA  PW   PBX  PBC
                           (   1   4   3   4   0   0   0)

     celldm(1)=  18.927497  celldm(2)=   0.000000  celldm(3)=   1.797125
     celldm(4)=   0.000000  celldm(5)=   0.000000  celldm(6)=   0.000000

     crystal axes: (cart. coord. in units of alat)
               a(1) = (   1.000000   0.000000   0.000000 )  
               a(2) = (  -0.500000   0.866025   0.000000 )  
               a(3) = (   0.000000   0.000000   1.797125 )  

     reciprocal axes: (cart. coord. in units 2 pi/alat)
               b(1) = (  1.000000  0.577350  0.000000 )  
               b(2) = (  0.000000  1.154701  0.000000 )  
               b(3) = (  0.000000  0.000000  0.556444 )  


     PseudoPot. # 1 for B  read from file:
     /home/sf05/q-e-qe-6.7MaX-Release/pseudo/B.pbe-n-kjpaw_psl.1.0.0.UPF
     MD5 check sum: d9c678ba5d3b2fd7b74e61139c9288d8
     Pseudo is Projector augmented-wave + core cor, Zval =  3.0
     Generated using "atomic" code by A. Dal Corso  v.5.1.2
     Shape of augmentation charge: PSQ
     Using radial grid of 1059 points,  4 beta functions with: 
                l(1) =   0
                l(2) =   0
                l(3) =   1
                l(4) =   1
     Q(r) pseudized with 0 coefficients 


     PseudoPot. # 2 for N  read from file:
     /home/sf05/q-e-qe-6.7MaX-Release/pseudo/N.pbe-n-kjpaw_psl.1.0.0.UPF
     MD5 check sum: e0e4e94a9c4025c5b51bd7d8793849bd
     Pseudo is Projector augmented-wave + core cor, Zval =  5.0
     Generated using "atomic" code by A. Dal Corso  v.5.1.2
     Shape of augmentation charge: PSQ
     Using radial grid of 1085 points,  4 beta functions with: 
                l(1) =   0
                l(2) =   0
                l(3) =   1
                l(4) =   1
     Q(r) pseudized with 0 coefficients 


     PseudoPot. # 3 for Cr read from file:
     /home/sf05/q-e-qe-6.7MaX-Release/pseudo/Cr.pbe-spn-kjpaw_psl.1.0.0.UPF
     MD5 check sum: 198f1a2427a48552563eee314eba32ba
     Pseudo is Projector augmented-wave + core cor, Zval = 14.0
     Generated using &quot;atomic&quot; code by A. Dal Corso  v.6.3
     Shape of augmentation charge: PSQ
     Using radial grid of 1183 points,  6 beta functions with: 
                l(1) =   0
                l(2) =   0
                l(3) =   1
                l(4) =   1
                l(5) =   2
                l(6) =   2
     Q(r) pseudized with 0 coefficients 


     PseudoPot. # 4 for Cr read from file:
     /home/sf05/q-e-qe-6.7MaX-Release/pseudo/Cr.pbe-spn-kjpaw_psl.1.0.0.UPF
     MD5 check sum: 198f1a2427a48552563eee314eba32ba
     Pseudo is Projector augmented-wave + core cor, Zval = 14.0
     Generated using &quot;atomic&quot; code by A. Dal Corso  v.6.3
     Shape of augmentation charge: PSQ
     Using radial grid of 1183 points,  6 beta functions with: 
                l(1) =   0
                l(2) =   0
                l(3) =   1
                l(4) =   1
                l(5) =   2
                l(6) =   2
     Q(r) pseudized with 0 coefficients 


     atomic species   valence    mass     pseudopotential
        B              3.00    10.81100     B ( 1.00)
        N              5.00    14.00674     N ( 1.00)
        Cr1           14.00    51.99610     Cr( 1.00)
        Cr2           14.00    51.99610     Cr( 1.00)

     Starting magnetic structure 
     atomic species   magnetization
        B            0.000
        N            0.000
        Cr1          1.000
        Cr2          1.000

     No symmetry found



   Cartesian axes

     site n.     atom                  positions (alat units)
         1           B   tau(   1) = (  -0.1250000   0.2165064   0.8985623  )
         2           B   tau(   2) = (   0.3750000   0.6495191   0.8985623  )
         3           B   tau(   3) = (   0.2500000   0.0000000   0.8985623  )
         4           B   tau(   4) = (   0.7500000   0.0000000   0.8985623  )
         5           B   tau(   5) = (   0.1250000   0.2165064   0.8985623  )
         6           B   tau(   6) = (  -0.3750000   0.6495191   0.8985623  )
         7           N   tau(   7) = (   0.7500005   0.2886748   0.8985623  )
         8           N   tau(   8) = (   0.3750005   0.5051812   0.8985623  )
         9           N   tau(   9) = (   0.3750005   0.0721685   0.8985623  )
        10           N   tau(  10) = (   0.6250005   0.0721685   0.8985623  )
        11           N   tau(  11) = (   0.2500005   0.2886748   0.8985623  )
        12           N   tau(  12) = (   0.6250005   0.5051812   0.8985623  )
        13           N   tau(  13) = (   0.0000005   0.2886748   0.8985623  )
        14           N   tau(  14) = (   0.2500005   0.7216875   0.8985623  )
        15           N   tau(  15) = (  -0.2499995   0.7216875   0.8985623  )
        16           B   tau(  16) = (   0.0000000   0.4330127   0.8985623  )
        17           B   tau(  17) = (   0.1250000   0.6495191   0.8985623  )
        18           B   tau(  18) = (  -0.1250000   0.6495191   0.8985623  )
        19           B   tau(  19) = (   0.3750000   0.2165064   0.8985623  )
        20           B   tau(  20) = (   0.6250000   0.2165064   0.8985623  )
        21           B   tau(  21) = (   0.5000000   0.4330127   0.8985623  )
        22           N   tau(  22) = (   0.5000005   0.2886748   0.8985623  )
        23           B   tau(  23) = (  -0.2500000   0.4330127   0.8985623  )
        24           B   tau(  24) = (   0.2500000   0.4330127   0.8985623  )
        25           B   tau(  25) = (   0.5000000   0.0000000   0.8985623  )
        26           N   tau(  26) = (  -0.1249995   0.5051812   0.8985623  )
        27           N   tau(  27) = (   0.1250005   0.5051812   0.8985623  )
        28           N   tau(  28) = (   0.0000005   0.7216875   0.8985623  )
        29           N   tau(  29) = (   0.5000005   0.7216875   0.8985623  )
        30           N   tau(  30) = (   0.1250005   0.0721685   0.8985623  )
        31           N   tau(  31) = (   0.8750005   0.0721685   0.8985623  )
        32           B   tau(  32) = (   0.0000000   0.0000000   0.8985623  )
        33           Cr1 tau(  33) = (   0.3500000   0.1732051   1.2040735  )
        34           Cr2 tau(  34) = (   0.1500000   0.1732051   1.2040735  )

     number of k points=    15  Gaussian smearing, width (Ry)=  0.0000
                       cart. coord. in units 2pi/alat
        k(    1) = (   0.1666667   0.2886751   0.0000000), wk =   0.0740741
        k(    2) = (   0.1666667  -0.4811252   0.0000000), wk =   0.0740741
        k(    3) = (   0.1666667  -0.0962250   0.0000000), wk =   0.0740741
        k(    4) = (  -0.5000000  -0.8660254   0.0000000), wk =   0.0370370
        k(    5) = (  -0.1666667   0.2886751   0.0000000), wk =   0.0740741
        k(    6) = (   0.3333333   0.0000000   0.0000000), wk =   0.0740741
        k(    7) = (  -0.1666667  -0.4811252   0.0000000), wk =   0.0740741
        k(    8) = (   0.5000000  -0.0962250   0.0000000), wk =   0.0740741
        k(    9) = (  -0.3333333  -0.3849002   0.0000000), wk =   0.0740741
        k(   10) = (   0.5000000   0.0962250   0.0000000), wk =   0.0740741
        k(   11) = (  -0.3333333   0.3849002   0.0000000), wk =   0.0740741
        k(   12) = (  -0.1666667  -0.0962250   0.0000000), wk =   0.0740741
        k(   13) = (  -0.0000000  -0.1924501   0.0000000), wk =   0.0740741
        k(   14) = (   0.5000000  -0.8660254   0.0000000), wk =   0.0370370
        k(   15) = (  -1.0000000   0.0000000   0.0000000), wk =   0.0370370

     Dense  grid:  1741401 G-vectors     FFT dimensions: ( 135, 135, 240)

     Smooth grid:   474235 G-vectors     FFT dimensions: (  90,  90, 160)

     Estimated max dynamical RAM per process >     218.62 MB

     Estimated total dynamical RAM >      10.25 GB
     Generating pointlists ...
     new r_m :   0.0595 (alat units)  1.1269 (a.u.) for type    1
     new r_m :   0.0595 (alat units)  1.1269 (a.u.) for type    2
     new r_m :   0.0825 (alat units)  1.5615 (a.u.) for type    3
     new r_m :   0.0825 (alat units)  1.5615 (a.u.) for type    4

     Initial potential from superposition of free atoms

     starting charge  155.99382, renormalised to  156.00000

     negative rho (up, down):  6.881E-03 4.655E-04
     Starting wfcs are  148 randomized atomic wfcs
     Checking if some PAW data can be deallocated... 

     total cpu time spent up to now is       20.1 secs

     Self-consistent Calculation

     iteration #  1     ecut=    48.00 Ry     beta= 0.50
     Davidson diagonalization with overlap
     ethr =  1.00E-02,  avg # of iterations =  2.9

     negative rho (up, down):  5.225E-03 2.894E-03

     total cpu time spent up to now is       59.9 secs

     total energy              =   -1130.47280850 Ry
     estimated scf accuracy    <      11.46018691 Ry

     total magnetization       =    12.00 Bohr mag/cell
     absolute magnetization    =    12.07 Bohr mag/cell

     iteration #  2     ecut=    48.00 Ry     beta= 0.50
     Davidson diagonalization with overlap
     ethr =  7.35E-03,  avg # of iterations =  3.2

     negative rho (up, down):  9.862E-03 6.805E-03

     total cpu time spent up to now is       97.5 secs

     total energy              =   -1132.90352558 Ry
     estimated scf accuracy    <       3.27258705 Ry

     total magnetization       =    10.00 Bohr mag/cell
     absolute magnetization    =    10.23 Bohr mag/cell

     iteration #  3     ecut=    48.00 Ry     beta= 0.50
     Davidson diagonalization with overlap
     ethr =  2.10E-03,  avg # of iterations =  8.2

     negative rho (up, down):  4.181E-03 3.365E-03

     total cpu time spent up to now is      137.6 secs

     total energy              =   -1133.37732373 Ry
     estimated scf accuracy    <       0.83885996 Ry

     total magnetization       =    10.00 Bohr mag/cell
     absolute magnetization    =    10.12 Bohr mag/cell

     iteration #  4     ecut=    48.00 Ry     beta= 0.50
     Davidson diagonalization with overlap
     ethr =  5.38E-04,  avg # of iterations =  6.9

     negative rho (up, down):  1.066E-02 9.465E-03

     total cpu time spent up to now is      174.4 secs

     total energy              =   -1133.53272919 Ry
     estimated scf accuracy    <       0.81793522 Ry

     total magnetization       =    10.00 Bohr mag/cell
     absolute magnetization    =    10.01 Bohr mag/cell

     iteration #  5     ecut=    48.00 Ry     beta= 0.50
     Davidson diagonalization with overlap
     ethr =  5.24E-04,  avg # of iterations =  4.5

     negative rho (up, down):  5.032E-03 5.276E-03

     total cpu time spent up to now is      207.1 secs

     total energy              =   -1133.62597566 Ry
     estimated scf accuracy    <       0.05013746 Ry

     total magnetization       =    10.00 Bohr mag/cell
     absolute magnetization    =    10.03 Bohr mag/cell

     iteration #  6     ecut=    48.00 Ry     beta= 0.50
     Davidson diagonalization with overlap
     ethr =  3.21E-05,  avg # of iterations =  9.7

     negative rho (up, down):  4.101E-03 4.304E-03

     total cpu time spent up to now is      249.7 secs

     total energy              =   -1133.63117487 Ry
     estimated scf accuracy    <       0.01089101 Ry

     total magnetization       =    10.00 Bohr mag/cell
     absolute magnetization    =    10.02 Bohr mag/cell

     iteration #  7     ecut=    48.00 Ry     beta= 0.50
     Davidson diagonalization with overlap
     c_bands:  1 eigenvalues not converged
     c_bands:  2 eigenvalues not converged
     c_bands:  1 eigenvalues not converged
     ethr =  6.98E-06,  avg # of iterations = 10.0

     negative rho (up, down):  3.801E-03 4.081E-03

     total cpu time spent up to now is      295.3 secs

     total energy              =   -1133.63357918 Ry
     estimated scf accuracy    <       0.00913764 Ry

     total magnetization       =    10.00 Bohr mag/cell
     absolute magnetization    =    10.01 Bohr mag/cell

     iteration #  8     ecut=    48.00 Ry     beta= 0.50
     Davidson diagonalization with overlap
     ethr =  5.86E-06,  avg # of iterations =  5.7

     negative rho (up, down):  3.448E-03 3.923E-03

     total cpu time spent up to now is      328.9 secs

     total energy              =   -1133.63482629 Ry
     estimated scf accuracy    <       0.00066799 Ry

     total magnetization       =    10.00 Bohr mag/cell
     absolute magnetization    =    10.02 Bohr mag/cell

     iteration #  9     ecut=    48.00 Ry     beta= 0.50
     Davidson diagonalization with overlap
     c_bands:  1 eigenvalues not converged
     ethr =  4.28E-07,  avg # of iterations =  5.2

     negative rho (up, down):  3.328E-03 3.910E-03

     total cpu time spent up to now is      362.1 secs

     total energy              =   -1133.63504326 Ry
     estimated scf accuracy    <       0.00017463 Ry

     total magnetization       =    10.00 Bohr mag/cell
     absolute magnetization    =    10.02 Bohr mag/cell

     iteration # 10     ecut=    48.00 Ry     beta= 0.50
     Davidson diagonalization with overlap
     ethr =  1.12E-07,  avg # of iterations =  3.3

     negative rho (up, down):  3.338E-03 3.997E-03

     total cpu time spent up to now is      394.8 secs

     total energy              =   -1133.63518899 Ry
     estimated scf accuracy    <       0.00006520 Ry

     total magnetization       =    10.00 Bohr mag/cell
     absolute magnetization    =    10.02 Bohr mag/cell

     iteration # 11     ecut=    48.00 Ry     beta= 0.50
     Davidson diagonalization with overlap
     ethr =  4.18E-08,  avg # of iterations =  4.5

     negative rho (up, down):  3.299E-03 4.051E-03

     total cpu time spent up to now is      428.8 secs

     total energy              =   -1133.63528031 Ry
     estimated scf accuracy    <       0.00008147 Ry

     total magnetization       =    10.00 Bohr mag/cell
     absolute magnetization    =    10.02 Bohr mag/cell

     iteration # 12     ecut=    48.00 Ry     beta= 0.50
     Davidson diagonalization with overlap
     ethr =  4.18E-08,  avg # of iterations =  3.9

     negative rho (up, down):  3.278E-03 4.030E-03

     total cpu time spent up to now is      461.0 secs

     total energy              =   -1133.63534085 Ry
     estimated scf accuracy    <       0.00001420 Ry

     total magnetization       =    10.00 Bohr mag/cell
     absolute magnetization    =    10.02 Bohr mag/cell

     iteration # 13     ecut=    48.00 Ry     beta= 0.50
     Davidson diagonalization with overlap
     ethr =  9.10E-09,  avg # of iterations =  4.0

     negative rho (up, down):  3.260E-03 3.999E-03

     total cpu time spent up to now is      494.0 secs

     total energy              =   -1133.63536344 Ry
     estimated scf accuracy    <       0.00000202 Ry

     total magnetization       =    10.00 Bohr mag/cell
     absolute magnetization    =    10.02 Bohr mag/cell

     iteration # 14     ecut=    48.00 Ry     beta= 0.50
     Davidson diagonalization with overlap
     ethr =  1.30E-09,  avg # of iterations =  4.7

     negative rho (up, down):  3.255E-03 3.981E-03

     total cpu time spent up to now is      529.4 secs

     total energy              =   -1133.63537157 Ry
     estimated scf accuracy    <       0.00000080 Ry

     total magnetization       =    10.00 Bohr mag/cell
     absolute magnetization    =    10.02 Bohr mag/cell

     iteration # 15     ecut=    48.00 Ry     beta= 0.50
     Davidson diagonalization with overlap
     ethr =  5.13E-10,  avg # of iterations =  4.0

     negative rho (up, down):  3.253E-03 3.976E-03

     total cpu time spent up to now is      561.5 secs

     total energy              =   -1133.63537394 Ry
     estimated scf accuracy    <       0.00000016 Ry

     total magnetization       =    10.00 Bohr mag/cell
     absolute magnetization    =    10.02 Bohr mag/cell

     iteration # 16     ecut=    48.00 Ry     beta= 0.50
     Davidson diagonalization with overlap
     ethr =  1.02E-10,  avg # of iterations =  4.5

     negative rho (up, down):  3.253E-03 3.972E-03
 
     Magnetic moment per site:
     atom:    1    charge:    0.8806    magn:    0.0003    constr:    0.0000
     atom:    2    charge:    0.8803    magn:    0.0001    constr:    0.0000
     atom:    3    charge:    0.8801    magn:   -0.0002    constr:    0.0000
     atom:    4    charge:    0.8804    magn:    0.0001    constr:    0.0000
     atom:    5    charge:    0.8810    magn:    0.0004    constr:    0.0000
     atom:    6    charge:    0.8803    magn:    0.0001    constr:    0.0000
     atom:    7    charge:    2.8610    magn:   -0.0000    constr:    0.0000
     atom:    8    charge:    2.8608    magn:    0.0005    constr:    0.0000
     atom:    9    charge:    2.8611    magn:    0.0114    constr:    0.0000
     atom:   10    charge:    2.8608    magn:    0.0005    constr:    0.0000
     atom:   11    charge:    2.8602    magn:    0.0104    constr:    0.0000
     atom:   12    charge:    2.8610    magn:    0.0001    constr:    0.0000
     atom:   13    charge:    2.8597    magn:    0.0044    constr:    0.0000
     atom:   14    charge:    2.8599    magn:    0.0003    constr:    0.0000
     atom:   15    charge:    2.8598    magn:    0.0005    constr:    0.0000
     atom:   16    charge:    0.8800    magn:    0.0004    constr:    0.0000
     atom:   17    charge:    0.8800    magn:    0.0001    constr:    0.0000
     atom:   18    charge:    0.8800    magn:    0.0001    constr:    0.0000
     atom:   19    charge:    0.8804    magn:    0.0004    constr:    0.0000
     atom:   20    charge:    0.8800    magn:    0.0003    constr:    0.0000
     atom:   21    charge:    0.8798    magn:    0.0004    constr:    0.0000
     atom:   22    charge:    2.8610    magn:    0.0044    constr:    0.0000
     atom:   23    charge:    0.8800    magn:    0.0002    constr:    0.0000
     atom:   24    charge:    0.8798    magn:    0.0005    constr:    0.0000
     atom:   25    charge:    0.8801    magn:    0.0007    constr:    0.0000
     atom:   26    charge:    2.8598    magn:    0.0001    constr:    0.0000
     atom:   27    charge:    2.8597    magn:    0.0005    constr:    0.0000
     atom:   28    charge:    2.8597    magn:    0.0004    constr:    0.0000
     atom:   29    charge:    2.8595    magn:    0.0004    constr:    0.0000
     atom:   30    charge:    2.8598    magn:    0.0114    constr:    0.0000
     atom:   31    charge:    2.8595    magn:    0.0005    constr:    0.0000
     atom:   32    charge:    0.8803    magn:    0.0007    constr:    0.0000
     atom:   33    charge:   11.2268    magn:    3.3828    constr:    0.0000
     atom:   34    charge:   11.2267    magn:    3.3828    constr:    0.0000

     total cpu time spent up to now is      600.2 secs

     End of self-consistent calculation

 ------ SPIN UP ------------


          k = 0.1667 0.2887 0.0000 ( 59267 PWs)   bands (ev):

   -73.6607 -73.2732 -46.0479 -44.9060 -44.8796 -44.6652 -44.6384 -44.3620
   -21.2428 -20.6679 -20.6394 -20.0976 -20.0941 -19.5945 -19.5669 -19.0955
   -18.7027 -18.6768 -18.4508 -18.4480 -18.1911 -18.0859 -18.0676 -17.8448
   -12.4795 -12.2014 -12.1987 -11.8197 -11.8098 -11.6536 -11.1957 -11.1759
   -10.3871 -10.3634 -10.1198 -10.1038  -9.5881  -9.5796  -8.8456  -8.8206
    -8.8157  -8.7712  -8.7474  -8.5920  -8.1925  -8.0798  -7.9873  -7.8237
    -7.8223  -7.4379  -7.4286  -7.2773  -7.2621  -7.2076  -7.1969  -6.9543
    -6.9520  -6.5911  -6.5108  -6.1503  -6.1463  -5.8749  -5.4138  -5.3122
    -5.2657  -5.1951  -4.9127  -4.8998  -4.5202  -4.3636  -4.3390  -4.0422
    -4.0117  -3.9573  -3.8883  -3.0315  -2.4676  -2.4507  -1.5997  -1.5601
    -1.0445  -1.0102  -0.9638  -0.1195   0.4282   0.7686   1.1079   1.2632
     1.3510   1.4822   1.5435   1.5835   1.6243   1.8532

          k = 0.1667-0.4811 0.0000 ( 59291 PWs)   bands (ev):

   -73.6607 -73.2732 -46.0479 -44.9060 -44.8796 -44.6652 -44.6384 -44.3620
   -21.1122 -20.9095 -20.7166 -20.1556 -19.8001 -19.4624 -19.3141 -19.1685
   -19.0113 -18.7735 -18.6344 -18.5410 -18.1432 -18.0876 -17.9159 -17.7192
   -12.3434 -12.1092 -12.0397 -11.9028 -11.6810 -11.6488 -11.5485 -10.9379
   -10.8847 -10.6184 -10.5191  -9.8553  -9.6887  -9.3318  -9.1063  -8.6771
    -8.6185  -8.5474  -8.3854  -8.3731  -8.1559  -8.1128  -8.0626  -8.0412
    -7.6823  -7.6183  -7.4909  -7.4675  -7.3540  -7.1666  -7.0635  -6.8620
    -6.6173  -6.3912  -6.1850  -6.1534  -5.9638  -5.9241  -5.7784  -5.7516
    -5.4466  -5.3937  -5.2121  -5.0428  -4.4591  -4.3537  -4.0957  -4.0352
    -3.9836  -3.9098  -3.7512  -3.0290  -2.4680  -2.4503  -1.6008  -1.5607
    -1.0468  -1.0097  -0.9651  -0.1230   0.3572   0.7836   1.1061   1.1656
     1.2526   1.3233   1.4979   1.8539   1.9114   2.1435

          k = 0.1667-0.0962 0.0000 ( 59226 PWs)   bands (ev):

   -73.6607 -73.2732 -46.0479 -44.9060 -44.8796 -44.6652 -44.6384 -44.3620
   -21.3093 -20.5310 -20.3413 -20.3348 -19.9863 -19.9730 -19.8013 -18.7265
   -18.7163 -18.3722 -18.3674 -18.3500 -18.2587 -18.2573 -18.0738 -18.0659
   -12.5017 -12.4992 -12.4040 -11.5778 -11.5703 -11.4201 -11.4175 -10.9223
   -10.9185  -9.9242  -9.9224  -9.6711  -9.3701  -9.3679  -9.2255  -9.2238
    -9.0375  -9.0357  -8.9283  -8.3187  -8.3173  -7.8961  -7.8948  -7.8865
    -7.8402  -7.7658  -7.6112  -7.5779  -7.1450  -7.0797  -6.9542  -6.8841
    -6.8794  -6.8469  -6.5267  -6.5228  -6.2527  -5.3628  -5.3124  -5.1383
    -5.0603  -4.8248  -4.8006  -4.7562  -4.6080  -4.6018  -4.3703  -4.3284
    -4.0343  -3.9829  -3.9003  -3.0346  -2.4687  -2.4507  -1.5988  -1.5596
    -1.0422  -1.0109  -0.9627  -0.1150   0.5140   0.7284   1.0950   1.2181
     1.2702   1.3803   1.5999   1.6099   1.8096   2.0060

          k =-0.5000-0.8660 0.0000 ( 59292 PWs)   bands (ev):

   -73.6607 -73.2732 -46.0479 -44.9060 -44.8796 -44.6652 -44.6383 -44.3620
   -21.0595 -21.0280 -20.4666 -20.4583 -19.4201 -19.4167 -19.4123 -19.4023
   -18.9975 -18.9744 -18.3395 -18.3243 -18.3017 -18.2923 -17.7906 -17.7823
   -12.0814 -12.0690 -12.0499 -12.0422 -11.8766 -11.8654 -11.3337 -11.3137
   -10.2325 -10.2288 -10.1302 -10.1279 -10.1222 -10.1216  -8.6273  -8.5551
    -8.5484  -8.5308  -8.5261  -8.5123  -7.8615  -7.8586  -7.8552  -7.8539
    -7.8185  -7.8151  -7.7844  -7.7460  -7.4951  -7.4717  -6.6081  -6.6007
    -6.3545  -6.3510  -6.3049  -6.2850  -6.1922  -6.1756  -5.7222  -5.6840
    -5.5499  -5.5276  -4.7778  -4.7236  -4.6878  -4.6555  -4.0579  -3.9989
    -3.9556  -3.8705  -3.8076  -3.0276  -2.4671  -2.4516  -1.6002  -1.5595
    -1.0569  -1.0134  -0.9663  -0.2146   0.4652   0.8031   1.1080   1.1407
     1.4963   1.5941   1.6094   1.6184   1.7938   1.8547

          k =-0.1667 0.2887 0.0000 ( 59267 PWs)   bands (ev):

   -73.6607 -73.2732 -46.0479 -44.9060 -44.8796 -44.6652 -44.6384 -44.3620
   -21.2428 -20.6678 -20.6394 -20.0976 -20.0941 -19.5945 -19.5669 -19.0955
   -18.7027 -18.6769 -18.4508 -18.4480 -18.1911 -18.0859 -18.0676 -17.8448
   -12.4794 -12.2014 -12.1987 -11.8197 -11.8098 -11.6536 -11.1956 -11.1759
   -10.3871 -10.3633 -10.1198 -10.1039  -9.5881  -9.5797  -8.8456  -8.8206
    -8.8157  -8.7712  -8.7475  -8.5919  -8.1926  -8.0798  -7.9873  -7.8236
    -7.8223  -7.4380  -7.4286  -7.2773  -7.2621  -7.2075  -7.1969  -6.9544
    -6.9521  -6.5911  -6.5108  -6.1503  -6.1463  -5.8749  -5.4139  -5.3122
    -5.2657  -5.1951  -4.9127  -4.8998  -4.5202  -4.3636  -4.3390  -4.0422
    -4.0117  -3.9573  -3.8883  -3.0315  -2.4676  -2.4507  -1.5997  -1.5601
    -1.0445  -1.0102  -0.9638  -0.1195   0.4282   0.7686   1.1079   1.2632
     1.3510   1.4822   1.5435   1.5835   1.6243   1.8534

          k = 0.3333 0.0000 0.0000 ( 59267 PWs)   bands (ev):

   -73.6607 -73.2732 -46.0479 -44.9060 -44.8796 -44.6652 -44.6384 -44.3620
   -21.2426 -20.6776 -20.6296 -20.0986 -20.0922 -19.6045 -19.5579 -19.0966
   -18.7080 -18.6689 -18.4525 -18.4472 -18.1888 -18.0961 -18.0607 -17.8443
   -12.4797 -12.2008 -12.1988 -11.8225 -11.8081 -11.6521 -11.2033 -11.1692
   -10.3862 -10.3636 -10.1234 -10.1000  -9.5906  -9.5767  -8.8506  -8.8187
    -8.8117  -8.7793  -8.7397  -8.5928  -8.1932  -8.1010  -7.9659  -7.8233
    -7.8217  -7.4395  -7.4264  -7.2893  -7.2469  -7.2114  -7.1933  -6.9552
    -6.9514  -6.6136  -6.4931  -6.1513  -6.1449  -5.8806  -5.4134  -5.3081
    -5.2598  -5.1955  -4.9204  -4.8960  -4.5088  -4.3736  -4.3367  -4.0622
    -3.9944  -3.9802  -3.8662  -3.0309  -2.4684  -2.4511  -1.5990  -1.5595
    -1.0505  -1.0128  -0.9646  -0.1829   0.5059   0.7541   1.2122   1.2520
     1.3862   1.4645   1.5609   1.5820   1.6101   1.9744

          k =-0.1667-0.4811 0.0000 ( 59291 PWs)   bands (ev):

   -73.6607 -73.2732 -46.0479 -44.9060 -44.8796 -44.6652 -44.6384 -44.3620
   -21.1122 -20.9095 -20.7166 -20.1556 -19.8001 -19.4624 -19.3141 -19.1685
   -19.0113 -18.7735 -18.6344 -18.5410 -18.1432 -18.0876 -17.9159 -17.7192
   -12.3435 -12.1091 -12.0397 -11.9028 -11.6810 -11.6488 -11.5485 -10.9379
   -10.8847 -10.6184 -10.5190  -9.8553  -9.6887  -9.3319  -9.1064  -8.6771
    -8.6185  -8.5475  -8.3853  -8.3731  -8.1559  -8.1128  -8.0627  -8.0412
    -7.6823  -7.6184  -7.4908  -7.4675  -7.3540  -7.1666  -7.0635  -6.8619
    -6.6174  -6.3912  -6.1850  -6.1534  -5.9638  -5.9241  -5.7783  -5.7516
    -5.4466  -5.3937  -5.2121  -5.0428  -4.4591  -4.3537  -4.0957  -4.0352
    -3.9836  -3.9098  -3.7512  -3.0290  -2.4680  -2.4503  -1.6008  -1.5607
    -1.0468  -1.0097  -0.9651  -0.1230   0.3572   0.7836   1.1061   1.1656
     1.2526   1.3233   1.4979   1.8540   1.9115   2.1433

          k = 0.5000-0.0962 0.0000 ( 59291 PWs)   bands (ev):

   -73.6607 -73.2732 -46.0479 -44.9060 -44.8796 -44.6652 -44.6384 -44.3620
   -21.1109 -20.9133 -20.7142 -20.1546 -19.8002 -19.4636 -19.3169 -19.1661
   -19.0117 -18.7741 -18.6293 -18.5439 -18.1377 -18.0951 -17.9148 -17.7190
   -12.3433 -12.1091 -12.0387 -11.9048 -11.6859 -11.6422 -11.5499 -10.9375
   -10.8841 -10.6178 -10.5202  -9.8537  -9.6893  -9.3325  -9.1061  -8.6721
    -8.6185  -8.5465  -8.3910  -8.3854  -8.1549  -8.1026  -8.0689  -8.0360
    -7.6805  -7.6187  -7.4904  -7.4681  -7.3498  -7.1673  -7.0636  -6.8615
    -6.6174  -6.3980  -6.1942  -6.1529  -5.9568  -5.9234  -5.7781  -5.7512
    -5.4474  -5.3950  -5.1974  -5.0501  -4.4407  -4.3652  -4.1134  -4.0335
    -3.9796  -3.9196  -3.7374  -3.0278  -2.4678  -2.4515  -1.6002  -1.5595
    -1.0569  -1.0134  -0.9664  -0.2137   0.4601   0.7891   1.0888   1.2011
     1.2815   1.3490   1.7194   1.8351   1.9742   2.0592

          k =-0.3333-0.3849 0.0000 ( 59291 PWs)   bands (ev):

   -73.6607 -73.2732 -46.0479 -44.9060 -44.8796 -44.6652 -44.6384 -44.3620
   -21.1113 -20.9120 -20.7151 -20.1545 -19.8013 -19.4625 -19.3142 -19.1680
   -19.0131 -18.7733 -18.6300 -18.5434 -18.1387 -18.0939 -17.9148 -17.7190
   -12.3433 -12.1087 -12.0396 -11.9047 -11.6806 -11.6480 -11.5492 -10.9376
   -10.8834 -10.6175 -10.5209  -9.8546  -9.6893  -9.3316  -9.1063  -8.6738
    -8.6182  -8.5478  -8.3859  -8.3829  -8.1559  -8.1068  -8.0631  -8.0419
    -7.6807  -7.6178  -7.4939  -7.4652  -7.3488  -7.1675  -7.0638  -6.8672
    -6.6164  -6.3922  -6.1838  -6.1538  -5.9640  -5.9230  -5.7784  -5.7585
    -5.4472  -5.3917  -5.1984  -5.0492  -4.4457  -4.3611  -4.1178  -4.0281
    -3.9851  -3.9072  -3.7449  -3.0281  -2.4674  -2.4512  -1.6006  -1.5599
    -1.0537  -1.0122  -0.9660  -0.1866   0.4256   0.7960   1.0973   1.1693
     1.2369   1.3930   1.6529   1.8797   1.9653   2.0055

          k = 0.5000 0.0962 0.0000 ( 59291 PWs)   bands (ev):

   -73.6607 -73.2732 -46.0479 -44.9060 -44.8796 -44.6652 -44.6384 -44.3620
   -21.1109 -20.9133 -20.7142 -20.1546 -19.8002 -19.4636 -19.3169 -19.1661
   -19.0117 -18.7741 -18.6293 -18.5439 -18.1376 -18.0951 -17.9147 -17.7190
   -12.3433 -12.1091 -12.0387 -11.9049 -11.6859 -11.6422 -11.5499 -10.9375
   -10.8841 -10.6178 -10.5202  -9.8538  -9.6893  -9.3325  -9.1060  -8.6721
    -8.6185  -8.5466  -8.3910  -8.3854  -8.1549  -8.1026  -8.0688  -8.0360
    -7.6806  -7.6187  -7.4905  -7.4681  -7.3498  -7.1674  -7.0635  -6.8615
    -6.6173  -6.3980  -6.1942  -6.1528  -5.9568  -5.9233  -5.7782  -5.7512
    -5.4474  -5.3950  -5.1974  -5.0501  -4.4407  -4.3652  -4.1134  -4.0335
    -3.9796  -3.9196  -3.7374  -3.0278  -2.4678  -2.4515  -1.6002  -1.5595
    -1.0569  -1.0134  -0.9664  -0.2137   0.4601   0.7891   1.0888   1.2011
     1.2815   1.3489   1.7194   1.8352   1.9741   2.0592

          k =-0.3333 0.3849 0.0000 ( 59291 PWs)   bands (ev):

   -73.6607 -73.2732 -46.0479 -44.9060 -44.8796 -44.6652 -44.6384 -44.3620
   -21.1113 -20.9120 -20.7151 -20.1545 -19.8013 -19.4625 -19.3142 -19.1680
   -19.0131 -18.7733 -18.6300 -18.5434 -18.1387 -18.0938 -17.9148 -17.7191
   -12.3432 -12.1087 -12.0396 -11.9047 -11.6806 -11.6480 -11.5492 -10.9376
   -10.8834 -10.6175 -10.5209  -9.8547  -9.6893  -9.3316  -9.1064  -8.6738
    -8.6182  -8.5477  -8.3859  -8.3829  -8.1559  -8.1068  -8.0630  -8.0419
    -7.6806  -7.6178  -7.4939  -7.4652  -7.3488  -7.1674  -7.0639  -6.8672
    -6.6164  -6.3922  -6.1838  -6.1539  -5.9640  -5.9231  -5.7783  -5.7585
    -5.4471  -5.3916  -5.1984  -5.0492  -4.4457  -4.3611  -4.1178  -4.0281
    -3.9851  -3.9072  -3.7449  -3.0281  -2.4674  -2.4512  -1.6006  -1.5599
    -1.0537  -1.0122  -0.9660  -0.1866   0.4256   0.7960   1.0973   1.1693
     1.2369   1.3930   1.6529   1.8798   1.9654   2.0055

          k =-0.1667-0.0962 0.0000 ( 59226 PWs)   bands (ev):

   -73.6607 -73.2732 -46.0479 -44.9060 -44.8796 -44.6652 -44.6384 -44.3620
   -21.3093 -20.5310 -20.3413 -20.3348 -19.9863 -19.9730 -19.8013 -18.7265
   -18.7163 -18.3722 -18.3674 -18.3500 -18.2587 -18.2574 -18.0737 -18.0659
   -12.5017 -12.4992 -12.4040 -11.5778 -11.5703 -11.4201 -11.4175 -10.9223
   -10.9185  -9.9243  -9.9224  -9.6710  -9.3701  -9.3678  -9.2255  -9.2239
    -9.0375  -9.0357  -8.9283  -8.3187  -8.3174  -7.8961  -7.8947  -7.8865
    -7.8401  -7.7658  -7.6112  -7.5779  -7.1450  -7.0797  -6.9543  -6.8841
    -6.8793  -6.8469  -6.5266  -6.5228  -6.2527  -5.3628  -5.3124  -5.1382
    -5.0604  -4.8247  -4.8005  -4.7563  -4.6079  -4.6018  -4.3703  -4.3284
    -4.0343  -3.9829  -3.9003  -3.0346  -2.4687  -2.4507  -1.5988  -1.5596
    -1.0422  -1.0109  -0.9627  -0.1150   0.5140   0.7284   1.0950   1.2181
     1.2703   1.3803   1.5999   1.6100   1.8096   2.0060

          k =-0.0000-0.1925 0.0000 ( 59226 PWs)   bands (ev):

   -73.6607 -73.2732 -46.0479 -44.9060 -44.8796 -44.6652 -44.6384 -44.3620
   -21.3093 -20.5286 -20.3412 -20.3394 -19.9806 -19.9750 -19.8029 -18.7228
   -18.7184 -18.3791 -18.3699 -18.3508 -18.2531 -18.2521 -18.0725 -18.0695
   -12.5010 -12.4998 -12.4041 -11.5763 -11.5731 -11.4192 -11.4161 -10.9215
   -10.9204  -9.9238  -9.9224  -9.6716  -9.3719  -9.3661  -9.2247  -9.2244
    -9.0369  -9.0365  -8.9285  -8.3182  -8.3170  -7.8955  -7.8940  -7.8782
    -7.8404  -7.7664  -7.6056  -7.6027  -7.1175  -7.0925  -6.9535  -6.8834
    -6.8808  -6.8517  -6.5257  -6.5237  -6.2528  -5.3459  -5.3238  -5.1385
    -5.0600  -4.8367  -4.8185  -4.7518  -4.5971  -4.5940  -4.3582  -4.3357
    -4.0360  -3.9823  -3.9035  -3.0349  -2.4683  -2.4505  -1.5992  -1.5599
    -1.0394  -1.0096  -0.9623  -0.0767   0.4685   0.7355   1.0423   1.1963
     1.2782   1.3912   1.6002   1.6122   1.7699   1.9986

          k = 0.5000-0.8660 0.0000 ( 59292 PWs)   bands (ev):

   -73.6607 -73.2732 -46.0479 -44.9060 -44.8796 -44.6652 -44.6383 -44.3620
   -21.0595 -21.0280 -20.4666 -20.4583 -19.4201 -19.4167 -19.4123 -19.4023
   -18.9974 -18.9745 -18.3395 -18.3243 -18.3016 -18.2924 -17.7906 -17.7823
   -12.0813 -12.0690 -12.0499 -12.0423 -11.8766 -11.8654 -11.3336 -11.3138
   -10.2325 -10.2288 -10.1302 -10.1279 -10.1222 -10.1216  -8.6273  -8.5550
    -8.5484  -8.5308  -8.5262  -8.5123  -7.8614  -7.8586  -7.8552  -7.8539
    -7.8186  -7.8152  -7.7844  -7.7460  -7.4952  -7.4718  -6.6080  -6.6006
    -6.3545  -6.3510  -6.3049  -6.2850  -6.1920  -6.1756  -5.7222  -5.6840
    -5.5500  -5.5277  -4.7777  -4.7236  -4.6877  -4.6555  -4.0579  -3.9989
    -3.9556  -3.8705  -3.8076  -3.0276  -2.4671  -2.4516  -1.6002  -1.5595
    -1.0569  -1.0134  -0.9663  -0.2147   0.4652   0.8031   1.1081   1.1407
     1.4963   1.5941   1.6094   1.6184   1.7937   1.8547

          k =-1.0000 0.0000 0.0000 ( 59292 PWs)   bands (ev):

   -73.6607 -73.2732 -46.0479 -44.9060 -44.8796 -44.6652 -44.6383 -44.3620
   -21.0681 -21.0181 -20.4651 -20.4622 -19.4157 -19.4146 -19.4132 -19.4051
   -19.0044 -18.9680 -18.3523 -18.3381 -18.2858 -18.2823 -17.7885 -17.7850
   -12.0890 -12.0797 -12.0387 -12.0325 -11.8740 -11.8688 -11.3426 -11.3065
   -10.2355 -10.2320 -10.1270 -10.1268 -10.1214 -10.1209  -8.6421  -8.5629
    -8.5564  -8.5203  -8.5196  -8.4915  -7.8633  -7.8631  -7.8554  -7.8551
    -7.8124  -7.8119  -7.7758  -7.7664  -7.5040  -7.4636  -6.6062  -6.6022
    -6.3541  -6.3290  -6.3100  -6.2910  -6.1994  -6.1697  -5.7270  -5.6811
    -5.5574  -5.5200  -4.7961  -4.7650  -4.6563  -4.6408  -4.0411  -4.0048
    -3.9209  -3.8693  -3.8468  -3.0294  -2.4683  -2.4498  -1.6007  -1.5612
    -1.0432  -1.0084  -0.9645  -0.0868   0.3275   0.7776   1.1278   1.1797
     1.2243   1.5212   1.6160   1.6392   1.6405   1.8908

 ------ SPIN DOWN ----------


          k = 0.1667 0.2887 0.0000 ( 59267 PWs)   bands (ev):

   -69.5662 -69.1588 -42.1709 -40.7771 -40.7489 -40.5231 -40.4952 -40.4141
   -21.2372 -20.6602 -20.6366 -20.0920 -20.0890 -19.5868 -19.5642 -19.0898
   -18.6932 -18.6740 -18.4453 -18.4428 -18.1838 -18.0796 -18.0651 -17.8394
   -12.4761 -12.1974 -12.1955 -11.8162 -11.8073 -11.6508 -11.1911 -11.1736
   -10.3833 -10.3598 -10.1145 -10.1016  -9.5840  -9.5770  -8.8207  -8.8163
    -8.8077  -8.7665  -8.7458  -8.5887  -8.1894  -8.0432  -7.9787  -7.8203
    -7.8193  -7.4323  -7.4255  -7.2517  -7.2438  -7.2035  -7.1947  -6.9510
    -6.9491  -6.5592  -6.5032  -6.1465  -6.1433  -5.8508  -5.4098  -5.2767
    -5.2468  -5.1916  -4.8895  -4.8827  -4.4842  -4.3386  -4.3208  -3.9592
    -1.5615  -0.5303  -0.4844  -0.4621   0.5847   0.8521   1.0327   1.0894
     1.2503   1.2832   1.4544   1.5166   1.5447   1.5904   1.6824   1.9496
     2.0776   2.1195   2.2242   2.2523   2.2905   2.4032

          k = 0.1667-0.4811 0.0000 ( 59291 PWs)   bands (ev):

   -69.5662 -69.1588 -42.1709 -40.7771 -40.7490 -40.5231 -40.4952 -40.4142
   -21.1061 -20.9047 -20.7117 -20.1503 -19.7948 -19.4569 -19.3083 -19.1634
   -19.0054 -18.7686 -18.6272 -18.5367 -18.1347 -18.0847 -17.9109 -17.7136
   -12.3400 -12.1055 -12.0368 -11.8996 -11.6772 -11.6464 -11.5452 -10.9342
   -10.8810 -10.6146 -10.5159  -9.8512  -9.6854  -9.3279  -9.1030  -8.6414
    -8.6149  -8.5436  -8.3821  -8.3550  -8.1529  -8.0942  -8.0584  -8.0392
    -7.6788  -7.6151  -7.4870  -7.4652  -7.3310  -7.1625  -7.0603  -6.8397
    -6.6131  -6.3689  -6.1592  -6.1500  -5.9466  -5.9200  -5.7748  -5.7272
    -5.4432  -5.3749  -5.1777  -5.0285  -4.4149  -4.3394  -4.0673  -3.7472
    -1.5545  -0.5299  -0.4825  -0.4577   0.5717   0.8252   1.0200   1.0443
     1.1479   1.2175   1.3159   1.3607   1.6421   1.8167   1.9327   2.0908
     2.1322   2.2140   2.2364   2.2538   2.2905   2.3712

          k = 0.1667-0.0962 0.0000 ( 59226 PWs)   bands (ev):

   -69.5662 -69.1588 -42.1709 -40.7771 -40.7489 -40.5231 -40.4952 -40.4141
   -21.3038 -20.5248 -20.3361 -20.3304 -19.9793 -19.9688 -19.7970 -18.7190
   -18.7111 -18.3646 -18.3605 -18.3453 -18.2538 -18.2529 -18.0683 -18.0623
   -12.4980 -12.4962 -12.4006 -11.5742 -11.5677 -11.4165 -11.4144 -10.9183
   -10.9155  -9.9205  -9.9193  -9.6671  -9.3665  -9.3644  -9.2212  -9.2201
    -9.0343  -9.0325  -8.9013  -8.3145  -8.3132  -7.8923  -7.8915  -7.8545
    -7.8351  -7.7627  -7.5885  -7.5654  -7.1090  -7.0682  -6.9507  -6.8806
    -6.8767  -6.8342  -6.5229  -6.5200  -6.2494  -5.3245  -5.2956  -5.1345
    -5.0568  -4.7896  -4.7773  -4.7326  -4.5880  -4.5868  -4.3338  -4.3142
    -1.5686  -0.5307  -0.4866  -0.4660   0.6009   0.8014   1.0450   1.1178
     1.2566   1.3425   1.3783   1.5388   1.6184   1.6356   1.7989   1.9411
     2.0321   2.0568   2.0998   2.2631   2.2974   2.3535

          k =-0.5000-0.8660 0.0000 ( 59292 PWs)   bands (ev):

   -69.5662 -69.1588 -42.1709 -40.7771 -40.7490 -40.5231 -40.4952 -40.4142
   -21.0513 -21.0252 -20.4610 -20.4540 -19.4123 -19.4108 -19.4063 -19.3993
   -18.9896 -18.9721 -18.3285 -18.3164 -18.2985 -18.2916 -17.7841 -17.7780
   -12.0753 -12.0648 -12.0479 -12.0409 -11.8729 -11.8632 -11.3291 -11.3114
   -10.2282 -10.2253 -10.1256 -10.1241 -10.1192 -10.1188  -8.5814  -8.5496
    -8.5437  -8.5288  -8.5247  -8.5046  -7.8575  -7.8547  -7.8520  -7.8506
    -7.8122  -7.8110  -7.7612  -7.7339  -7.4907  -7.4702  -6.6034  -6.5982
    -6.3174  -6.3163  -6.2884  -6.2761  -6.1873  -6.1731  -5.6974  -5.6708
    -5.5447  -5.5261  -4.7295  -4.6960  -4.6739  -4.6532  -3.8665  -3.8497
    -1.5425  -0.5286  -0.4841  -0.4579   0.3932   0.8494   0.9979   1.0368
     1.1962   1.4392   1.5027   1.5879   1.6124   1.6219   1.7323   1.9200
     1.9399   2.2208   2.2304   2.2645   2.3057   2.3587

          k =-0.1667 0.2887 0.0000 ( 59267 PWs)   bands (ev):

   -69.5662 -69.1588 -42.1709 -40.7771 -40.7489 -40.5231 -40.4952 -40.4141
   -21.2372 -20.6602 -20.6366 -20.0920 -20.0890 -19.5868 -19.5642 -19.0898
   -18.6932 -18.6740 -18.4453 -18.4428 -18.1838 -18.0796 -18.0651 -17.8394
   -12.4761 -12.1974 -12.1955 -11.8162 -11.8073 -11.6508 -11.1910 -11.1736
   -10.3834 -10.3598 -10.1145 -10.1017  -9.5840  -9.5770  -8.8207  -8.8163
    -8.8076  -8.7666  -8.7459  -8.5886  -8.1895  -8.0432  -7.9787  -7.8203
    -7.8193  -7.4323  -7.4255  -7.2517  -7.2438  -7.2034  -7.1947  -6.9511
    -6.9491  -6.5592  -6.5032  -6.1465  -6.1434  -5.8508  -5.4099  -5.2767
    -5.2468  -5.1915  -4.8895  -4.8827  -4.4842  -4.3386  -4.3208  -3.9592
    -1.5615  -0.5303  -0.4844  -0.4621   0.5847   0.8521   1.0327   1.0894
     1.2503   1.2833   1.4544   1.5166   1.5447   1.5904   1.6824   1.9496
     2.0776   2.1195   2.2240   2.2523   2.2902   2.4015

          k = 0.3333 0.0000 0.0000 ( 59267 PWs)   bands (ev):

   -69.5662 -69.1588 -42.1709 -40.7771 -40.7489 -40.5231 -40.4952 -40.4141
   -21.2370 -20.6694 -20.6273 -20.0933 -20.0871 -19.5962 -19.5557 -19.0907
   -18.6985 -18.6667 -18.4466 -18.4422 -18.1819 -18.0888 -18.0585 -17.8391
   -12.4763 -12.1977 -12.1948 -11.8193 -11.8052 -11.6494 -11.1983 -11.1672
   -10.3825 -10.3601 -10.1181 -10.0978  -9.5865  -9.5740  -8.8268  -8.8147
    -8.8027  -8.7742  -8.7382  -8.5895  -8.1900  -8.0610  -7.9609  -7.8202
    -7.8188  -7.4338  -7.4236  -7.2604  -7.2330  -7.2073  -7.1912  -6.9519
    -6.9483  -6.5772  -6.4881  -6.1475  -6.1421  -5.8536  -5.4094  -5.2781
    -5.2408  -5.1920  -4.8956  -4.8778  -4.4808  -4.3486  -4.3152  -3.9588
    -1.5538  -0.5290  -0.4856  -0.4617   0.4615   0.7962   1.0438   1.1552
     1.3109   1.4154   1.4652   1.5306   1.5450   1.5978   1.6115   1.9241
     2.0319   2.1820   2.2396   2.2773   2.2983   2.4594

          k =-0.1667-0.4811 0.0000 ( 59291 PWs)   bands (ev):

   -69.5662 -69.1588 -42.1709 -40.7771 -40.7490 -40.5231 -40.4952 -40.4142
   -21.1061 -20.9047 -20.7117 -20.1503 -19.7948 -19.4569 -19.3083 -19.1634
   -19.0054 -18.7686 -18.6272 -18.5367 -18.1347 -18.0847 -17.9109 -17.7136
   -12.3401 -12.1055 -12.0368 -11.8996 -11.6773 -11.6464 -11.5452 -10.9342
   -10.8810 -10.6146 -10.5158  -9.8512  -9.6854  -9.3279  -9.1030  -8.6414
    -8.6149  -8.5436  -8.3821  -8.3550  -8.1528  -8.0942  -8.0585  -8.0392
    -7.6788  -7.6152  -7.4869  -7.4652  -7.3310  -7.1624  -7.0603  -6.8397
    -6.6132  -6.3689  -6.1593  -6.1501  -5.9466  -5.9200  -5.7748  -5.7272
    -5.4433  -5.3749  -5.1776  -5.0285  -4.4149  -4.3394  -4.0673  -3.7472
    -1.5545  -0.5299  -0.4825  -0.4577   0.5718   0.8252   1.0200   1.0443
     1.1479   1.2175   1.3159   1.3607   1.6421   1.8167   1.9327   2.0908
     2.1320   2.2139   2.2365   2.2536   2.2915   2.3705

          k = 0.5000-0.0962 0.0000 ( 59291 PWs)   bands (ev):

   -69.5662 -69.1588 -42.1709 -40.7771 -40.7490 -40.5231 -40.4952 -40.4141
   -21.1050 -20.9078 -20.7097 -20.1495 -19.7949 -19.4578 -19.3105 -19.1615
   -19.0057 -18.7690 -18.6232 -18.5391 -18.1299 -18.0910 -17.9100 -17.7135
   -12.3400 -12.1056 -12.0357 -11.9014 -11.6818 -11.6401 -11.5465 -10.9339
   -10.8804 -10.6142 -10.5168  -9.8498  -9.6859  -9.3285  -9.1027  -8.6380
    -8.6149  -8.5430  -8.3836  -8.3654  -8.1519  -8.0877  -8.0642  -8.0343
    -7.6773  -7.6155  -7.4865  -7.4658  -7.3284  -7.1633  -7.0602  -6.8395
    -6.6131  -6.3723  -6.1651  -6.1495  -5.9421  -5.9194  -5.7746  -5.7273
    -5.4440  -5.3754  -5.1695  -5.0333  -4.4066  -4.3490  -4.0668  -3.7471
    -1.5425  -0.5286  -0.4842  -0.4581   0.3967   0.8171   0.9884   1.0433
     1.2246   1.3311   1.3705   1.4100   1.6521   1.8220   1.9552   2.0238
     2.1186   2.1739   2.2212   2.2753   2.3072   2.3779

          k =-0.3333-0.3849 0.0000 ( 59291 PWs)   bands (ev):

   -69.5662 -69.1588 -42.1709 -40.7771 -40.7490 -40.5231 -40.4952 -40.4142
   -21.1053 -20.9067 -20.7105 -20.1494 -19.7957 -19.4570 -19.3084 -19.1629
   -19.0069 -18.7684 -18.6238 -18.5387 -18.1308 -18.0899 -17.9100 -17.7135
   -12.3399 -12.1052 -12.0366 -11.9013 -11.6770 -11.6455 -11.5458 -10.9339
   -10.8798 -10.6138 -10.5174  -9.8507  -9.6860  -9.3277  -9.1029  -8.6391
    -8.6146  -8.5439  -8.3826  -8.3614  -8.1529  -8.0903  -8.0586  -8.0398
    -7.6775  -7.6146  -7.4897  -7.4633  -7.3279  -7.1635  -7.0604  -6.8427
    -6.6121  -6.3692  -6.1590  -6.1502  -5.9463  -5.9192  -5.7750  -5.7311
    -5.4438  -5.3736  -5.1699  -5.0332  -4.4077  -4.3479  -4.0666  -3.7471
    -1.5465  -0.5292  -0.4836  -0.4582   0.4463   0.8399   0.9962   1.0318
     1.2130   1.2575   1.3060   1.4368   1.6645   1.9152   1.9668   2.0379
     2.0717   2.1687   2.2073   2.2608   2.3039   2.3583

          k = 0.5000 0.0962 0.0000 ( 59291 PWs)   bands (ev):

   -69.5662 -69.1588 -42.1709 -40.7771 -40.7490 -40.5231 -40.4952 -40.4141
   -21.1049 -20.9078 -20.7097 -20.1495 -19.7949 -19.4578 -19.3105 -19.1615
   -19.0057 -18.7690 -18.6232 -18.5391 -18.1299 -18.0910 -17.9100 -17.7135
   -12.3400 -12.1056 -12.0357 -11.9014 -11.6818 -11.6401 -11.5465 -10.9339
   -10.8804 -10.6142 -10.5168  -9.8498  -9.6860  -9.3285  -9.1027  -8.6380
    -8.6149  -8.5430  -8.3836  -8.3654  -8.1519  -8.0877  -8.0642  -8.0342
    -7.6774  -7.6155  -7.4866  -7.4659  -7.3284  -7.1634  -7.0601  -6.8395
    -6.6130  -6.3723  -6.1651  -6.1494  -5.9421  -5.9193  -5.7747  -5.7273
    -5.4441  -5.3754  -5.1695  -5.0333  -4.4066  -4.3490  -4.0668  -3.7471
    -1.5425  -0.5286  -0.4842  -0.4581   0.3967   0.8171   0.9884   1.0433
     1.2246   1.3311   1.3705   1.4100   1.6521   1.8219   1.9552   2.0238
     2.1187   2.1739   2.2211   2.2753   2.3067   2.3779

          k =-0.3333 0.3849 0.0000 ( 59291 PWs)   bands (ev):

   -69.5662 -69.1588 -42.1709 -40.7771 -40.7490 -40.5231 -40.4952 -40.4142
   -21.1053 -20.9067 -20.7105 -20.1494 -19.7957 -19.4570 -19.3084 -19.1629
   -19.0069 -18.7684 -18.6238 -18.5387 -18.1308 -18.0899 -17.9100 -17.7135
   -12.3399 -12.1052 -12.0366 -11.9013 -11.6770 -11.6456 -11.5458 -10.9340
   -10.8798 -10.6138 -10.5174  -9.8507  -9.6859  -9.3277  -9.1029  -8.6391
    -8.6147  -8.5438  -8.3826  -8.3614  -8.1529  -8.0903  -8.0585  -8.0398
    -7.6774  -7.6146  -7.4897  -7.4632  -7.3279  -7.1634  -7.0605  -6.8427
    -6.6122  -6.3692  -6.1590  -6.1502  -5.9463  -5.9193  -5.7749  -5.7311
    -5.4437  -5.3735  -5.1699  -5.0332  -4.4078  -4.3479  -4.0666  -3.7471
    -1.5465  -0.5292  -0.4836  -0.4582   0.4463   0.8399   0.9962   1.0318
     1.2130   1.2575   1.3060   1.4368   1.6645   1.9152   1.9668   2.0378
     2.0716   2.1687   2.2073   2.2600   2.3036   2.3581

          k =-0.1667-0.0962 0.0000 ( 59226 PWs)   bands (ev):

   -69.5662 -69.1588 -42.1709 -40.7771 -40.7489 -40.5231 -40.4952 -40.4141
   -21.3038 -20.5248 -20.3361 -20.3304 -19.9793 -19.9688 -19.7970 -18.7190
   -18.7111 -18.3646 -18.3605 -18.3452 -18.2538 -18.2529 -18.0683 -18.0623
   -12.4980 -12.4962 -12.4005 -11.5741 -11.5677 -11.4165 -11.4144 -10.9183
   -10.9155  -9.9205  -9.9193  -9.6671  -9.3664  -9.3644  -9.2212  -9.2201
    -9.0343  -9.0325  -8.9013  -8.3145  -8.3132  -7.8923  -7.8914  -7.8545
    -7.8351  -7.7628  -7.5884  -7.5654  -7.1090  -7.0682  -6.9508  -6.8806
    -6.8767  -6.8342  -6.5229  -6.5199  -6.2495  -5.3245  -5.2956  -5.1344
    -5.0569  -4.7895  -4.7772  -4.7327  -4.5880  -4.5868  -4.3338  -4.3142
    -1.5686  -0.5307  -0.4866  -0.4660   0.6009   0.8014   1.0450   1.1178
     1.2566   1.3425   1.3783   1.5388   1.6184   1.6356   1.7989   1.9411
     2.0320   2.0568   2.0998   2.2631   2.2975   2.3530

          k =-0.0000-0.1925 0.0000 ( 59226 PWs)   bands (ev):

   -69.5662 -69.1588 -42.1709 -40.7771 -40.7489 -40.5231 -40.4952 -40.4141
   -21.3038 -20.5228 -20.3364 -20.3337 -19.9751 -19.9699 -19.7983 -18.7165
   -18.7122 -18.3701 -18.3629 -18.3453 -18.2496 -18.2486 -18.0677 -18.0647
   -12.4982 -12.4958 -12.4007 -11.5732 -11.5700 -11.4164 -11.4123 -10.9181
   -10.9168  -9.9199  -9.9193  -9.6676  -9.3680  -9.3632  -9.2208  -9.2205
    -9.0338  -9.0329  -8.9014  -8.3139  -8.3130  -7.8922  -7.8911  -7.8497
    -7.8343  -7.7632  -7.5847  -7.5812  -7.0916  -7.0765  -6.9500  -6.8802
    -6.8778  -6.8376  -6.5225  -6.5204  -6.2495  -5.3141  -5.3032  -5.1349
    -5.0564  -4.8016  -4.7789  -4.7318  -4.5835  -4.5789  -4.3292  -4.3211
    -1.5723  -0.5314  -0.4859  -0.4663   0.6847   0.8313   1.0448   1.0975
     1.1764   1.2692   1.4368   1.5427   1.5519   1.6377   1.8374   1.9088
     1.9724   2.0585   2.1500   2.2601   2.2994   2.3462

          k = 0.5000-0.8660 0.0000 ( 59292 PWs)   bands (ev):

   -69.5662 -69.1588 -42.1709 -40.7771 -40.7490 -40.5231 -40.4952 -40.4142
   -21.0512 -21.0253 -20.4610 -20.4540 -19.4123 -19.4108 -19.4063 -19.3993
   -18.9895 -18.9722 -18.3285 -18.3165 -18.2985 -18.2917 -17.7841 -17.7780
   -12.0752 -12.0649 -12.0478 -12.0410 -11.8729 -11.8632 -11.3290 -11.3114
   -10.2283 -10.2253 -10.1256 -10.1241 -10.1192 -10.1189  -8.5814  -8.5495
    -8.5436  -8.5288  -8.5248  -8.5046  -7.8574  -7.8547  -7.8520  -7.8506
    -7.8122  -7.8111  -7.7611  -7.7339  -7.4907  -7.4703  -6.6034  -6.5981
    -6.3174  -6.3163  -6.2884  -6.2761  -6.1871  -6.1731  -5.6974  -5.6708
    -5.5448  -5.5261  -4.7294  -4.6960  -4.6738  -4.6533  -3.8665  -3.8498
    -1.5425  -0.5286  -0.4841  -0.4579   0.3932   0.8494   0.9979   1.0368
     1.1962   1.4392   1.5028   1.5879   1.6124   1.6219   1.7323   1.9200
     1.9399   2.2208   2.2304   2.2645   2.3058   2.3587

          k =-1.0000 0.0000 0.0000 ( 59292 PWs)   bands (ev):

   -69.5662 -69.1588 -42.1709 -40.7771 -40.7489 -40.5231 -40.4952 -40.4142
   -21.0595 -21.0159 -20.4602 -20.4567 -19.4105 -19.4085 -19.4072 -19.4002
   -18.9962 -18.9659 -18.3406 -18.3287 -18.2848 -18.2815 -17.7830 -17.7796
   -12.0845 -12.0732 -12.0373 -12.0313 -11.8710 -11.8661 -11.3376 -11.3045
   -10.2305 -10.2283 -10.1230 -10.1228 -10.1187 -10.1182  -8.5953  -8.5574
    -8.5515  -8.5193  -8.5178  -8.4867  -7.8599  -7.8585  -7.8522  -7.8515
    -7.8080  -7.8073  -7.7544  -7.7473  -7.4990  -7.4624  -6.6024  -6.5990
    -6.3161  -6.3055  -6.2920  -6.2781  -6.1944  -6.1674  -5.7030  -5.6667
    -5.5516  -5.5187  -4.7521  -4.7129  -4.6509  -4.6391  -3.8622  -3.8541
    -1.5584  -0.5300  -0.4819  -0.4570   0.6491   0.8185   1.0529   1.0552
     1.0969   1.2844   1.3913   1.4992   1.6228   1.6379   1.6556   1.8545
     2.0595   2.2566   2.2650   2.2800   2.2979   2.3438

     the Fermi energy is    -0.8114 ev

!    total energy              =   -1133.63537551 Ry

     total all-electron energy =     -6753.311079 Ry
     estimated scf accuracy    <       0.00000008 Ry
     smearing contrib. (-TS)   =      -0.00000000 Ry
     internal energy E=F+TS    =   -1133.63537551 Ry

     The total energy is F=E-TS. E is the sum of the following terms:
     one-electron contribution =   -4007.15532157 Ry
     hartree contribution      =    2031.29048387 Ry
     xc contribution           =    -186.21628548 Ry
     ewald contribution        =    1387.82978619 Ry
     DFT-D3 Dispersion         =      -0.12151240 Ry
     one-center paw contrib.   =    -359.26252612 Ry

     total magnetization       =    10.00 Bohr mag/cell
     absolute magnetization    =    10.02 Bohr mag/cell

     convergence has been achieved in  16 iterations

     Writing output data file ./mytmp/Crdimer0.1-0.2.save/
 
     init_run     :     18.55s CPU     19.78s WALL (       1 calls)
     electrons    :    544.22s CPU    580.22s WALL (       1 calls)

     Called by init_run:
     wfcinit      :     13.86s CPU     14.58s WALL (       1 calls)
     potinit      :      1.49s CPU      1.59s WALL (       1 calls)
     hinit0       :      1.55s CPU      1.62s WALL (       1 calls)

     Called by electrons:
     c_bands      :    433.44s CPU    459.85s WALL (      16 calls)
     sum_band     :     85.48s CPU     91.37s WALL (      16 calls)
     v_of_rho     :      5.23s CPU      5.59s WALL (      17 calls)
     newd         :     10.68s CPU     14.15s WALL (      17 calls)
     PAW_pot      :      8.36s CPU      8.48s WALL (      17 calls)
     mix_rho      :      1.15s CPU      1.17s WALL (      16 calls)

     Called by c_bands:
     init_us_2    :      5.77s CPU      5.81s WALL (     990 calls)
     cegterg      :    419.32s CPU    445.67s WALL (     480 calls)

     Called by *egterg:
     cdiaghg      :     26.57s CPU     42.91s WALL (    3036 calls)
     h_psi        :    269.63s CPU    278.91s WALL (    3066 calls)
     s_psi        :     30.39s CPU     30.46s WALL (    3066 calls)
     g_psi        :      0.78s CPU      0.80s WALL (    2556 calls)

     Called by h_psi:
     h_psi:calbec :     31.31s CPU     31.96s WALL (    3066 calls)
     vloc_psi     :    205.30s CPU    213.83s WALL (    3066 calls)
     add_vuspsi   :     30.74s CPU     30.84s WALL (    3066 calls)

     General routines
     calbec       :     42.02s CPU     42.89s WALL (    3546 calls)
     fft          :      4.89s CPU      5.83s WALL (     419 calls)
     ffts         :      0.13s CPU      0.13s WALL (      66 calls)
     fftw         :    212.53s CPU    221.45s WALL (  279724 calls)
     interpolate  :      0.47s CPU      0.49s WALL (      34 calls)
 
     Parallel routines
     fft_scatt_xy :     34.23s CPU     35.45s WALL (  280209 calls)
     fft_scatt_yz :     84.63s CPU     89.68s WALL (  280209 calls)
 
     PWSCF        :   9m24.76s CPU  10m 4.08s WALL

 
   This run was terminated on:  10:25:40  31Mar2021            

=------------------------------------------------------------------------------=
   JOB DONE.
=------------------------------------------------------------------------------=
