
     Program PWSCF v.6.7MaX starts on 29Mar2021 at 23:44:30 

     This program is part of the open-source Quantum ESPRESSO suite
     for quantum simulation of materials; please cite
         "P. Giannozzi et al., J. Phys.:Condens. Matter 21 395502 (2009);
         "P. Giannozzi et al., J. Phys.:Condens. Matter 29 465901 (2017);
          URL http://www.quantum-espresso.org", 
     in publications or presentations arising from this work. More details at
     http://www.quantum-espresso.org/quote

     Parallel version (MPI), running on    48 processors

     MPI processes distributed on     1 nodes
     R & G space division:  proc/nbgrp/npool/nimage =      48
     Reading input from Crdimer0.28-0.2.scf.in

     Current dimensions of program PWSCF are:
     Max number of different atomic species (ntypx) = 10
     Max number of k-points (npk) =  40000
     Max angular momentum in pseudopotentials (lmaxx) =  3
     file N.pbe-n-kjpaw_psl.1.0.0.UPF: wavefunction(s)  2S renormalized
     file Cr.pbe-spn-kjpaw_psl.1.0.0.UPF: wavefunction(s)  3S 3P 3D renormalized
     file Cr.pbe-spn-kjpaw_psl.1.0.0.UPF: wavefunction(s)  3S 3P 3D renormalized

     --------------------------------------------
     Parameters for DFT-D3 Dispersion Correction:
     --------------------------------------------
       Reference C6 values for interpolation: 

         atom   Coordination number   C6
         B          0.000           214.36
         B          0.971           150.74
         B          1.944           106.23
         B          2.913            62.89
         B          4.586            56.06
         N          0.000            50.54
         N          0.994            44.25
         N          2.014            39.35
         N          2.990            31.16
         Cr1        0.000          1381.48
         Cr1        1.827           571.38
         Cr1       10.619           306.69
         Cr2        0.000          1381.48
         Cr2        1.827           571.38
         Cr2       10.619           306.69

       Values used:

         atom   Coordination number  R0_AB[au]  C6      C8
         B          3.360            3.039     62.87   2505.34
         B          3.335            3.039     62.89   2506.00
         B          3.336            3.039     62.89   2505.98
         B          3.338            3.039     62.89   2505.93
         B          3.347            3.039     62.88   2505.72
         B          3.335            3.039     62.89   2506.01
         N          3.138            2.478     31.22    688.66
         N          3.134            2.478     31.22    688.70
         N          3.139            2.478     31.22    688.65
         N          3.145            2.478     31.21    688.60
         N          3.135            2.478     31.22    688.68
         N          3.134            2.478     31.22    688.69
         N          3.148            2.478     31.21    688.57
         N          3.134            2.478     31.22    688.69
         N          3.134            2.478     31.22    688.70
         B          3.337            3.039     62.89   2505.96
         B          3.335            3.039     62.89   2506.00
         B          3.335            3.039     62.89   2506.01
         B          3.347            3.039     62.88   2505.72
         B          3.360            3.039     62.87   2505.34
         B          3.337            3.039     62.89   2505.96
         N          3.148            2.478     31.21    688.57
         B          3.336            3.039     62.89   2505.98
         B          3.336            3.039     62.89   2506.00
         B          3.344            3.039     62.89   2505.79
         N          3.134            2.478     31.22    688.69
         N          3.134            2.478     31.22    688.70
         N          3.135            2.478     31.22    688.69
         N          3.135            2.478     31.22    688.69
         N          3.139            2.478     31.22    688.65
         N          3.145            2.478     31.21    688.60
         B          3.344            3.039     62.89   2505.79
         Cr1        0.097            3.252   1381.48 127494.81
         Cr2        0.097            3.252   1381.48 127494.81

         Molecular C6 ( Ry / a.u.^6 ) =     79164.92


     Subspace diagonalization in iterative solution of the eigenvalue problem:
     one sub-group per band group will be used
     scalapack distributed-memory algorithm (size of sub-group:  6*  6 procs)

 
     Parallelization info
     --------------------
     sticks:   dense  smooth     PW     G-vecs:    dense   smooth      PW
     Min         235      98     26                36277     9874    1408
     Max         236      99     27                36282     9883    1425
     Sum       11311    4741   1285              1741401   474235   68095
 


     bravais-lattice index     =            4
     lattice parameter (alat)  =      18.9275  a.u.
     unit-cell volume          =   10553.3021 (a.u.)^3
     number of atoms/cell      =           34
     number of atomic types    =            4
     number of electrons       =       156.00
     number of Kohn-Sham states=           94
     kinetic-energy cutoff     =      48.0000  Ry
     charge density cutoff     =     457.0000  Ry
     scf convergence threshold =      1.0E-07
     mixing beta               =       0.5000
     number of iterations used =            8  plain     mixing
     Exchange-correlation= SLA  PW   PBX  PBC
                           (   1   4   3   4   0   0   0)

     celldm(1)=  18.927497  celldm(2)=   0.000000  celldm(3)=   1.797125
     celldm(4)=   0.000000  celldm(5)=   0.000000  celldm(6)=   0.000000

     crystal axes: (cart. coord. in units of alat)
               a(1) = (   1.000000   0.000000   0.000000 )  
               a(2) = (  -0.500000   0.866025   0.000000 )  
               a(3) = (   0.000000   0.000000   1.797125 )  

     reciprocal axes: (cart. coord. in units 2 pi/alat)
               b(1) = (  1.000000  0.577350  0.000000 )  
               b(2) = (  0.000000  1.154701  0.000000 )  
               b(3) = (  0.000000  0.000000  0.556444 )  


     PseudoPot. # 1 for B  read from file:
     /home/sf05/q-e-qe-6.7MaX-Release/pseudo/B.pbe-n-kjpaw_psl.1.0.0.UPF
     MD5 check sum: d9c678ba5d3b2fd7b74e61139c9288d8
     Pseudo is Projector augmented-wave + core cor, Zval =  3.0
     Generated using "atomic" code by A. Dal Corso  v.5.1.2
     Shape of augmentation charge: PSQ
     Using radial grid of 1059 points,  4 beta functions with: 
                l(1) =   0
                l(2) =   0
                l(3) =   1
                l(4) =   1
     Q(r) pseudized with 0 coefficients 


     PseudoPot. # 2 for N  read from file:
     /home/sf05/q-e-qe-6.7MaX-Release/pseudo/N.pbe-n-kjpaw_psl.1.0.0.UPF
     MD5 check sum: e0e4e94a9c4025c5b51bd7d8793849bd
     Pseudo is Projector augmented-wave + core cor, Zval =  5.0
     Generated using "atomic" code by A. Dal Corso  v.5.1.2
     Shape of augmentation charge: PSQ
     Using radial grid of 1085 points,  4 beta functions with: 
                l(1) =   0
                l(2) =   0
                l(3) =   1
                l(4) =   1
     Q(r) pseudized with 0 coefficients 


     PseudoPot. # 3 for Cr read from file:
     /home/sf05/q-e-qe-6.7MaX-Release/pseudo/Cr.pbe-spn-kjpaw_psl.1.0.0.UPF
     MD5 check sum: 198f1a2427a48552563eee314eba32ba
     Pseudo is Projector augmented-wave + core cor, Zval = 14.0
     Generated using &quot;atomic&quot; code by A. Dal Corso  v.6.3
     Shape of augmentation charge: PSQ
     Using radial grid of 1183 points,  6 beta functions with: 
                l(1) =   0
                l(2) =   0
                l(3) =   1
                l(4) =   1
                l(5) =   2
                l(6) =   2
     Q(r) pseudized with 0 coefficients 


     PseudoPot. # 4 for Cr read from file:
     /home/sf05/q-e-qe-6.7MaX-Release/pseudo/Cr.pbe-spn-kjpaw_psl.1.0.0.UPF
     MD5 check sum: 198f1a2427a48552563eee314eba32ba
     Pseudo is Projector augmented-wave + core cor, Zval = 14.0
     Generated using &quot;atomic&quot; code by A. Dal Corso  v.6.3
     Shape of augmentation charge: PSQ
     Using radial grid of 1183 points,  6 beta functions with: 
                l(1) =   0
                l(2) =   0
                l(3) =   1
                l(4) =   1
                l(5) =   2
                l(6) =   2
     Q(r) pseudized with 0 coefficients 


     atomic species   valence    mass     pseudopotential
        B              3.00    10.81100     B ( 1.00)
        N              5.00    14.00674     N ( 1.00)
        Cr1           14.00    51.99610     Cr( 1.00)
        Cr2           14.00    51.99610     Cr( 1.00)

     Starting magnetic structure 
     atomic species   magnetization
        B            0.000
        N            0.000
        Cr1          1.000
        Cr2          1.000

     No symmetry found



   Cartesian axes

     site n.     atom                  positions (alat units)
         1           B   tau(   1) = (  -0.1250000   0.2165064   0.8985623  )
         2           B   tau(   2) = (   0.3750000   0.6495191   0.8985623  )
         3           B   tau(   3) = (   0.2500000   0.0000000   0.8985623  )
         4           B   tau(   4) = (   0.7500000   0.0000000   0.8985623  )
         5           B   tau(   5) = (   0.1250000   0.2165064   0.8985623  )
         6           B   tau(   6) = (  -0.3750000   0.6495191   0.8985623  )
         7           N   tau(   7) = (   0.7500005   0.2886748   0.8985623  )
         8           N   tau(   8) = (   0.3750005   0.5051812   0.8985623  )
         9           N   tau(   9) = (   0.3750005   0.0721685   0.8985623  )
        10           N   tau(  10) = (   0.6250005   0.0721685   0.8985623  )
        11           N   tau(  11) = (   0.2500005   0.2886748   0.8985623  )
        12           N   tau(  12) = (   0.6250005   0.5051812   0.8985623  )
        13           N   tau(  13) = (   0.0000005   0.2886748   0.8985623  )
        14           N   tau(  14) = (   0.2500005   0.7216875   0.8985623  )
        15           N   tau(  15) = (  -0.2499995   0.7216875   0.8985623  )
        16           B   tau(  16) = (   0.0000000   0.4330127   0.8985623  )
        17           B   tau(  17) = (   0.1250000   0.6495191   0.8985623  )
        18           B   tau(  18) = (  -0.1250000   0.6495191   0.8985623  )
        19           B   tau(  19) = (   0.3750000   0.2165064   0.8985623  )
        20           B   tau(  20) = (   0.6250000   0.2165064   0.8985623  )
        21           B   tau(  21) = (   0.5000000   0.4330127   0.8985623  )
        22           N   tau(  22) = (   0.5000005   0.2886748   0.8985623  )
        23           B   tau(  23) = (  -0.2500000   0.4330127   0.8985623  )
        24           B   tau(  24) = (   0.2500000   0.4330127   0.8985623  )
        25           B   tau(  25) = (   0.5000000   0.0000000   0.8985623  )
        26           N   tau(  26) = (  -0.1249995   0.5051812   0.8985623  )
        27           N   tau(  27) = (   0.1250005   0.5051812   0.8985623  )
        28           N   tau(  28) = (   0.0000005   0.7216875   0.8985623  )
        29           N   tau(  29) = (   0.5000005   0.7216875   0.8985623  )
        30           N   tau(  30) = (   0.1250005   0.0721685   0.8985623  )
        31           N   tau(  31) = (   0.8750005   0.0721685   0.8985623  )
        32           B   tau(  32) = (   0.0000000   0.0000000   0.8985623  )
        33           Cr1 tau(  33) = (   0.5300000   0.1732051   1.2040735  )
        34           Cr2 tau(  34) = (  -0.0300000   0.1732051   1.2040735  )

     number of k points=    15  Gaussian smearing, width (Ry)=  0.0000
                       cart. coord. in units 2pi/alat
        k(    1) = (   0.1666667   0.2886751   0.0000000), wk =   0.0740741
        k(    2) = (   0.1666667  -0.4811252   0.0000000), wk =   0.0740741
        k(    3) = (   0.1666667  -0.0962250   0.0000000), wk =   0.0740741
        k(    4) = (  -0.5000000  -0.8660254   0.0000000), wk =   0.0370370
        k(    5) = (  -0.1666667   0.2886751   0.0000000), wk =   0.0740741
        k(    6) = (   0.3333333   0.0000000   0.0000000), wk =   0.0740741
        k(    7) = (  -0.1666667  -0.4811252   0.0000000), wk =   0.0740741
        k(    8) = (   0.5000000  -0.0962250   0.0000000), wk =   0.0740741
        k(    9) = (  -0.3333333  -0.3849002   0.0000000), wk =   0.0740741
        k(   10) = (   0.5000000   0.0962250   0.0000000), wk =   0.0740741
        k(   11) = (  -0.3333333   0.3849002   0.0000000), wk =   0.0740741
        k(   12) = (  -0.1666667  -0.0962250   0.0000000), wk =   0.0740741
        k(   13) = (  -0.0000000  -0.1924501   0.0000000), wk =   0.0740741
        k(   14) = (   0.5000000  -0.8660254   0.0000000), wk =   0.0370370
        k(   15) = (  -1.0000000   0.0000000   0.0000000), wk =   0.0370370

     Dense  grid:  1741401 G-vectors     FFT dimensions: ( 135, 135, 240)

     Smooth grid:   474235 G-vectors     FFT dimensions: (  90,  90, 160)

     Estimated max dynamical RAM per process >     218.62 MB

     Estimated total dynamical RAM >      10.25 GB
     Generating pointlists ...
     new r_m :   0.0595 (alat units)  1.1269 (a.u.) for type    1
     new r_m :   0.0595 (alat units)  1.1269 (a.u.) for type    2
     new r_m :   0.1332 (alat units)  2.5207 (a.u.) for type    3
     new r_m :   0.1332 (alat units)  2.5207 (a.u.) for type    4

     Initial potential from superposition of free atoms

     starting charge  155.99382, renormalised to  156.00000

     negative rho (up, down):  6.529E-03 4.655E-04
     Starting wfcs are  148 randomized atomic wfcs
     Checking if some PAW data can be deallocated... 

     total cpu time spent up to now is       20.4 secs

     Self-consistent Calculation

     iteration #  1     ecut=    48.00 Ry     beta= 0.50
     Davidson diagonalization with overlap
     ethr =  1.00E-02,  avg # of iterations =  2.8

     negative rho (up, down):  4.716E-03 2.953E-03

     total cpu time spent up to now is       63.2 secs

     total energy              =   -1130.76762606 Ry
     estimated scf accuracy    <      11.37183492 Ry

     total magnetization       =    12.00 Bohr mag/cell
     absolute magnetization    =    12.16 Bohr mag/cell

     iteration #  2     ecut=    48.00 Ry     beta= 0.50
     Davidson diagonalization with overlap
     ethr =  7.29E-03,  avg # of iterations =  2.7

     negative rho (up, down):  7.057E-03 1.089E-02

     total cpu time spent up to now is      103.4 secs

     total energy              =   -1133.10481054 Ry
     estimated scf accuracy    <       3.15149609 Ry

     total magnetization       =    12.00 Bohr mag/cell
     absolute magnetization    =    12.00 Bohr mag/cell

     iteration #  3     ecut=    48.00 Ry     beta= 0.50
     Davidson diagonalization with overlap
     ethr =  2.02E-03,  avg # of iterations =  6.9

     negative rho (up, down):  3.437E-03 5.995E-03

     total cpu time spent up to now is      143.6 secs

     total energy              =   -1133.63805025 Ry
     estimated scf accuracy    <       0.62571816 Ry

     total magnetization       =    12.00 Bohr mag/cell
     absolute magnetization    =    12.05 Bohr mag/cell

     iteration #  4     ecut=    48.00 Ry     beta= 0.50
     Davidson diagonalization with overlap
     ethr =  4.01E-04,  avg # of iterations =  7.9

     negative rho (up, down):  6.867E-03 1.417E-02

     total cpu time spent up to now is      184.5 secs

     total energy              =   -1133.79530937 Ry
     estimated scf accuracy    <       0.26127928 Ry

     total magnetization       =    12.00 Bohr mag/cell
     absolute magnetization    =    12.00 Bohr mag/cell

     iteration #  5     ecut=    48.00 Ry     beta= 0.50
     Davidson diagonalization with overlap
     ethr =  1.67E-04,  avg # of iterations =  8.9

     negative rho (up, down):  4.473E-03 9.786E-03

     total cpu time spent up to now is      226.4 secs

     total energy              =   -1133.80936757 Ry
     estimated scf accuracy    <       0.01756517 Ry

     total magnetization       =    12.00 Bohr mag/cell
     absolute magnetization    =    12.00 Bohr mag/cell

     iteration #  6     ecut=    48.00 Ry     beta= 0.50
     Davidson diagonalization with overlap
     c_bands:  1 eigenvalues not converged
     c_bands:  1 eigenvalues not converged
     c_bands:  2 eigenvalues not converged
     c_bands:  5 eigenvalues not converged
     c_bands:  2 eigenvalues not converged
     c_bands:  1 eigenvalues not converged
     c_bands:  4 eigenvalues not converged
     ethr =  1.13E-05,  avg # of iterations = 13.6

     negative rho (up, down):  3.351E-03 7.817E-03

     total cpu time spent up to now is      286.9 secs

     total energy              =   -1133.81181885 Ry
     estimated scf accuracy    <       0.00455149 Ry

     total magnetization       =    12.00 Bohr mag/cell
     absolute magnetization    =    12.01 Bohr mag/cell

     iteration #  7     ecut=    48.00 Ry     beta= 0.50
     Davidson diagonalization with overlap
     ethr =  2.92E-06,  avg # of iterations =  8.9

     negative rho (up, down):  3.029E-03 7.549E-03

     total cpu time spent up to now is      333.4 secs

     total energy              =   -1133.81282421 Ry
     estimated scf accuracy    <       0.00033062 Ry

     total magnetization       =    12.00 Bohr mag/cell
     absolute magnetization    =    12.00 Bohr mag/cell

     iteration #  8     ecut=    48.00 Ry     beta= 0.50
     Davidson diagonalization with overlap
     ethr =  2.12E-07,  avg # of iterations =  5.7

     negative rho (up, down):  2.898E-03 7.354E-03

     total cpu time spent up to now is      373.5 secs

     total energy              =   -1133.81288949 Ry
     estimated scf accuracy    <       0.00006718 Ry

     total magnetization       =    12.00 Bohr mag/cell
     absolute magnetization    =    12.00 Bohr mag/cell

     iteration #  9     ecut=    48.00 Ry     beta= 0.50
     Davidson diagonalization with overlap
     ethr =  4.31E-08,  avg # of iterations =  2.1

     negative rho (up, down):  2.861E-03 7.322E-03

     total cpu time spent up to now is      412.8 secs

     total energy              =   -1133.81294692 Ry
     estimated scf accuracy    <       0.00000566 Ry

     total magnetization       =    12.00 Bohr mag/cell
     absolute magnetization    =    12.00 Bohr mag/cell

     iteration # 10     ecut=    48.00 Ry     beta= 0.50
     Davidson diagonalization with overlap
     ethr =  3.63E-09,  avg # of iterations =  4.4

     negative rho (up, down):  2.850E-03 7.320E-03

     total cpu time spent up to now is      453.8 secs

     total energy              =   -1133.81297045 Ry
     estimated scf accuracy    <       0.00000306 Ry

     total magnetization       =    12.00 Bohr mag/cell
     absolute magnetization    =    12.00 Bohr mag/cell

     iteration # 11     ecut=    48.00 Ry     beta= 0.50
     Davidson diagonalization with overlap
     ethr =  1.96E-09,  avg # of iterations =  2.4

     negative rho (up, down):  2.846E-03 7.322E-03

     total cpu time spent up to now is      493.9 secs

     total energy              =   -1133.81297859 Ry
     estimated scf accuracy    <       0.00000023 Ry

     total magnetization       =    12.00 Bohr mag/cell
     absolute magnetization    =    12.00 Bohr mag/cell

     iteration # 12     ecut=    48.00 Ry     beta= 0.50
     Davidson diagonalization with overlap
     ethr =  1.45E-10,  avg # of iterations =  4.7

     negative rho (up, down):  2.844E-03 7.326E-03
 
     Magnetic moment per site:
     atom:    1    charge:    0.8807    magn:    0.0003    constr:    0.0000
     atom:    2    charge:    0.8803    magn:    0.0001    constr:    0.0000
     atom:    3    charge:    0.8803    magn:    0.0009    constr:    0.0000
     atom:    4    charge:    0.8804    magn:    0.0014    constr:    0.0000
     atom:    5    charge:    0.8804    magn:    0.0002    constr:    0.0000
     atom:    6    charge:    0.8803    magn:    0.0001    constr:    0.0000
     atom:    7    charge:    2.8607    magn:    0.0056    constr:    0.0000
     atom:    8    charge:    2.8609    magn:    0.0003    constr:    0.0000
     atom:    9    charge:    2.8607    magn:    0.0050    constr:    0.0000
     atom:   10    charge:    2.8606    magn:    0.0080    constr:    0.0000
     atom:   11    charge:    2.8609    magn:    0.0022    constr:    0.0000
     atom:   12    charge:    2.8609    magn:    0.0005    constr:    0.0000
     atom:   13    charge:    2.8596    magn:    0.0086    constr:    0.0000
     atom:   14    charge:    2.8599    magn:    0.0005    constr:    0.0000
     atom:   15    charge:    2.8599    magn:    0.0003    constr:    0.0000
     atom:   16    charge:    0.8801    magn:    0.0008    constr:    0.0000
     atom:   17    charge:    0.8800    magn:    0.0001    constr:    0.0000
     atom:   18    charge:    0.8800    magn:    0.0001    constr:    0.0000
     atom:   19    charge:    0.8798    magn:    0.0002    constr:    0.0000
     atom:   20    charge:    0.8801    magn:    0.0003    constr:    0.0000
     atom:   21    charge:    0.8798    magn:    0.0008    constr:    0.0000
     atom:   22    charge:    2.8609    magn:    0.0086    constr:    0.0000
     atom:   23    charge:    0.8799    magn:    0.0002    constr:    0.0000
     atom:   24    charge:    0.8799    magn:    0.0002    constr:    0.0000
     atom:   25    charge:    0.8800    magn:    0.0002    constr:    0.0000
     atom:   26    charge:    2.8598    magn:    0.0005    constr:    0.0000
     atom:   27    charge:    2.8598    magn:    0.0003    constr:    0.0000
     atom:   28    charge:    2.8598    magn:    0.0009    constr:    0.0000
     atom:   29    charge:    2.8596    magn:    0.0009    constr:    0.0000
     atom:   30    charge:    2.8593    magn:    0.0050    constr:    0.0000
     atom:   31    charge:    2.8593    magn:    0.0080    constr:    0.0000
     atom:   32    charge:    0.8803    magn:    0.0001    constr:    0.0000
     atom:   33    charge:   12.8995    magn:    4.8841    constr:    0.0000
     atom:   34    charge:   12.8995    magn:    4.8841    constr:    0.0000

     total cpu time spent up to now is      531.9 secs

     End of self-consistent calculation

 ------ SPIN UP ------------


          k = 0.1667 0.2887 0.0000 ( 59267 PWs)   bands (ev):

   -72.4634 -72.4629 -43.9290 -43.9284 -43.9229 -43.9224 -43.9183 -43.9178
   -21.2709 -20.6876 -20.6769 -20.1335 -20.1155 -19.6147 -19.6040 -19.1237
   -18.7236 -18.7133 -18.4861 -18.4703 -18.2192 -18.1106 -18.1011 -17.8737
   -12.5077 -12.2334 -12.2221 -11.8456 -11.8407 -11.6820 -11.2178 -11.2105
   -10.4158 -10.3913 -10.1433 -10.1371  -9.6135  -9.6107  -8.8605  -8.8518
    -8.8438  -8.7926  -8.7830  -8.6201  -8.2209  -8.0719  -8.0444  -7.8543
    -7.8493  -7.4632  -7.4599  -7.3192  -7.2686  -7.2331  -7.2288  -6.9883
    -6.9750  -6.5886  -6.5636  -6.1779  -6.1762  -5.8958  -5.4424  -5.3181
    -5.2976  -5.2240  -4.9507  -4.9106  -4.5298  -4.3809  -4.3647  -4.0026
    -2.3444  -1.5937  -1.4337  -1.4250  -1.4082  -1.3657  -1.3566  -1.3433
    -1.3318  -1.3214  -1.3064  -1.2425   0.6097   0.7892   1.0167   1.1591
     1.2468   1.4350   1.4744   1.5468   1.5730   1.6243

          k = 0.1667-0.4811 0.0000 ( 59291 PWs)   bands (ev):

   -72.4634 -72.4629 -43.9290 -43.9284 -43.9229 -43.9224 -43.9183 -43.9178
   -21.1405 -20.9364 -20.7469 -20.1848 -19.8283 -19.4910 -19.3407 -19.1989
   -19.0386 -18.8035 -18.6644 -18.5685 -18.1732 -18.1136 -17.9464 -17.7479
   -12.3717 -12.1369 -12.0685 -11.9304 -11.7048 -11.6818 -11.5764 -10.9658
   -10.9137 -10.6471 -10.5471  -9.8839  -9.7169  -9.3599  -9.1347  -8.6903
    -8.6466  -8.5769  -8.4129  -8.3912  -8.1852  -8.1488  -8.0873  -8.0732
    -7.7119  -7.6471  -7.5180  -7.4976  -7.3799  -7.1947  -7.0915  -6.8838
    -6.6459  -6.4140  -6.1992  -6.1815  -5.9973  -5.9532  -5.8074  -5.7686
    -5.4752  -5.4246  -5.2301  -5.0654  -4.4672  -4.3724  -4.1140  -3.7900
    -2.3357  -1.6000  -1.4311  -1.4251  -1.4082  -1.3635  -1.3571  -1.3433
    -1.3336  -1.3225  -1.3062  -1.2430   0.5902   0.6478   1.0536   1.0867
     1.1883   1.2255   1.3718   1.7430   1.8132   1.9056

          k = 0.1667-0.0962 0.0000 ( 59226 PWs)   bands (ev):

   -72.4634 -72.4629 -43.9290 -43.9284 -43.9229 -43.9224 -43.9182 -43.9178
   -21.3374 -20.5598 -20.3683 -20.3645 -20.0119 -20.0051 -19.8298 -18.7527
   -18.7472 -18.4027 -18.3881 -18.3807 -18.2979 -18.2806 -18.1004 -18.0965
   -12.5343 -12.5228 -12.4317 -11.6043 -11.6007 -11.4548 -11.4394 -10.9494
   -10.9479  -9.9525  -9.9504  -9.6996  -9.4022  -9.3922  -9.2542  -9.2521
    -9.0657  -9.0638  -8.9469  -8.3472  -8.3455  -7.9263  -7.9212  -7.9052
    -7.8693  -7.7940  -7.6270  -7.6141  -7.1485  -7.1246  -6.9830  -6.9116
    -6.9093  -6.8751  -6.5545  -6.5524  -6.2812  -5.3645  -5.3495  -5.1671
    -5.0891  -4.8399  -4.8119  -4.7777  -4.6554  -4.6132  -4.3708  -4.3614
    -2.3532  -1.5872  -1.4364  -1.4252  -1.4081  -1.3689  -1.3564  -1.3435
    -1.3305  -1.3201  -1.3068  -1.2421   0.6302   0.9317   0.9900   1.1628
     1.2303   1.3186   1.4360   1.5650   1.6051   1.6468

          k =-0.5000-0.8660 0.0000 ( 59292 PWs)   bands (ev):

   -72.4634 -72.4629 -43.9291 -43.9284 -43.9229 -43.9224 -43.9182 -43.9178
   -21.0781 -21.0664 -20.4926 -20.4892 -19.4544 -19.4467 -19.4348 -19.4303
   -19.0192 -19.0100 -18.3569 -18.3453 -18.3434 -18.3272 -17.8170 -17.8135
   -12.0999 -12.0900 -12.0890 -12.0765 -11.9012 -11.8971 -11.3556 -11.3485
   -10.2589 -10.2557 -10.1589 -10.1560 -10.1531 -10.1503  -8.6065  -8.5766
    -8.5749  -8.5704  -8.5669  -8.5605  -7.8867  -7.8863  -7.8843  -7.8822
    -7.8465  -7.8439  -7.7969  -7.7876  -7.5164  -7.5072  -6.6350  -6.6312
    -6.3839  -6.3589  -6.3260  -6.3165  -6.2158  -6.2095  -5.7358  -5.7203
    -5.5719  -5.5630  -4.7570  -4.7429  -4.7313  -4.6996  -3.9054  -3.8973
    -2.2271  -1.7736  -1.4267  -1.4146  -1.3909  -1.3705  -1.3591  -1.3478
    -1.3400  -1.3384  -1.3182  -1.3104   0.9629   1.0294   1.0757   1.2330
     1.2689   1.3324   1.4333   1.5503   1.6252   1.6445

          k =-0.1667 0.2887 0.0000 ( 59267 PWs)   bands (ev):

   -72.4634 -72.4629 -43.9290 -43.9284 -43.9229 -43.9224 -43.9183 -43.9178
   -21.2709 -20.6877 -20.6769 -20.1335 -20.1155 -19.6147 -19.6039 -19.1237
   -18.7236 -18.7133 -18.4861 -18.4703 -18.2192 -18.1106 -18.1011 -17.8737
   -12.5076 -12.2334 -12.2222 -11.8456 -11.8408 -11.6820 -11.2178 -11.2104
   -10.4158 -10.3913 -10.1433 -10.1371  -9.6136  -9.6107  -8.8605  -8.8517
    -8.8437  -8.7926  -8.7830  -8.6200  -8.2209  -8.0719  -8.0444  -7.8543
    -7.8493  -7.4632  -7.4599  -7.3192  -7.2686  -7.2331  -7.2288  -6.9884
    -6.9751  -6.5886  -6.5636  -6.1779  -6.1762  -5.8958  -5.4425  -5.3181
    -5.2976  -5.2239  -4.9507  -4.9106  -4.5298  -4.3809  -4.3647  -4.0026
    -2.3444  -1.5937  -1.4337  -1.4250  -1.4082  -1.3658  -1.3566  -1.3433
    -1.3318  -1.3214  -1.3065  -1.2425   0.6097   0.7892   1.0167   1.1591
     1.2467   1.4350   1.4744   1.5468   1.5730   1.6243

          k = 0.3333 0.0000 0.0000 ( 59267 PWs)   bands (ev):

   -72.4634 -72.4629 -43.9291 -43.9284 -43.9229 -43.9224 -43.9183 -43.9178
   -21.2705 -20.7091 -20.6553 -20.1258 -20.1219 -19.6364 -19.5838 -19.1254
   -18.7376 -18.6949 -18.4806 -18.4778 -18.2147 -18.1310 -18.0867 -17.8730
   -12.5076 -12.2289 -12.2263 -11.8529 -11.8354 -11.6802 -11.2330 -11.1959
   -10.4145 -10.3915 -10.1535 -10.1270  -9.6190  -9.6045  -8.8681  -8.8471
    -8.8389  -8.8105  -8.7659  -8.6208  -8.2224  -8.1250  -7.9907  -7.8514
    -7.8501  -7.4682  -7.4546  -7.3111  -7.2730  -7.2413  -7.2205  -6.9833
    -6.9814  -6.6397  -6.5188  -6.1803  -6.1730  -5.9003  -5.4422  -5.3293
    -5.2786  -5.2243  -4.9399  -4.9245  -4.5206  -4.4043  -4.3510  -4.0023
    -2.2821  -1.6954  -1.4307  -1.4190  -1.3979  -1.3651  -1.3631  -1.3418
    -1.3376  -1.3312  -1.3145  -1.2975   0.9901   1.0142   1.0528   1.1800
     1.2523   1.3190   1.4586   1.4908   1.5479   1.5829

          k =-0.1667-0.4811 0.0000 ( 59291 PWs)   bands (ev):

   -72.4634 -72.4629 -43.9290 -43.9284 -43.9229 -43.9224 -43.9183 -43.9178
   -21.1405 -20.9364 -20.7469 -20.1848 -19.8283 -19.4910 -19.3407 -19.1989
   -19.0386 -18.8035 -18.6644 -18.5685 -18.1732 -18.1136 -17.9464 -17.7479
   -12.3717 -12.1369 -12.0685 -11.9303 -11.7048 -11.6818 -11.5764 -10.9658
   -10.9138 -10.6471 -10.5471  -9.8839  -9.7169  -9.3600  -9.1347  -8.6903
    -8.6465  -8.5769  -8.4128  -8.3912  -8.1851  -8.1488  -8.0873  -8.0733
    -7.7119  -7.6471  -7.5180  -7.4976  -7.3799  -7.1946  -7.0915  -6.8838
    -6.6460  -6.4140  -6.1992  -6.1815  -5.9973  -5.9531  -5.8073  -5.7686
    -5.4753  -5.4246  -5.2301  -5.0655  -4.4672  -4.3724  -4.1140  -3.7900
    -2.3357  -1.6000  -1.4311  -1.4251  -1.4082  -1.3635  -1.3571  -1.3433
    -1.3336  -1.3225  -1.3062  -1.2430   0.5902   0.6478   1.0536   1.0867
     1.1883   1.2255   1.3719   1.7429   1.8124   1.9052

          k = 0.5000-0.0962 0.0000 ( 59291 PWs)   bands (ev):

   -72.4634 -72.4629 -43.9291 -43.9284 -43.9229 -43.9224 -43.9183 -43.9178
   -21.1380 -20.9434 -20.7422 -20.1831 -19.8288 -19.4921 -19.3469 -19.1942
   -19.0394 -18.8035 -18.6556 -18.5745 -18.1618 -18.1290 -17.9433 -17.7478
   -12.3710 -12.1374 -12.0664 -11.9338 -11.7158 -11.6685 -11.5786 -10.9663
   -10.9117 -10.6456 -10.5492  -9.8819  -9.7176  -9.3609  -9.1341  -8.6799
    -8.6471  -8.5750  -8.4229  -8.4162  -8.1831  -8.1278  -8.0992  -8.0624
    -7.7084  -7.6476  -7.5170  -7.4988  -7.3743  -7.1960  -7.0922  -6.8853
    -6.6463  -6.4184  -6.2191  -6.1811  -5.9819  -5.9524  -5.8067  -5.7707
    -5.4764  -5.4210  -5.2105  -5.0811  -4.4451  -4.3998  -4.1092  -3.7906
    -2.2273  -1.7734  -1.4267  -1.4147  -1.3909  -1.3707  -1.3600  -1.3477
    -1.3397  -1.3384  -1.3182  -1.3104   0.9118   1.0176   1.0972   1.1505
     1.2590   1.3564   1.3946   1.4470   1.5878   1.7862

          k =-0.3333-0.3849 0.0000 ( 59291 PWs)   bands (ev):

   -72.4634 -72.4629 -43.9290 -43.9284 -43.9229 -43.9224 -43.9183 -43.9178
   -21.1389 -20.9410 -20.7439 -20.1831 -19.8302 -19.4907 -19.3423 -19.1970
   -19.0422 -18.8021 -18.6570 -18.5734 -18.1640 -18.1264 -17.9434 -17.7479
   -12.3713 -12.1358 -12.0686 -11.9329 -11.7056 -11.6798 -11.5775 -10.9660
   -10.9115 -10.6450 -10.5501  -9.8826  -9.7176  -9.3605  -9.1346  -8.6831
    -8.6459  -8.5770  -8.4148  -8.4107  -8.1848  -8.1351  -8.0874  -8.0751
    -7.7089  -7.6459  -7.5236  -7.4930  -7.3739  -7.1962  -7.0926  -6.8904
    -6.6443  -6.4131  -6.2042  -6.1832  -5.9921  -5.9515  -5.8069  -5.7798
    -5.4762  -5.4169  -5.2103  -5.0809  -4.4477  -4.3979  -4.1086  -3.7906
    -2.2709  -1.7050  -1.4282  -1.4185  -1.3985  -1.3661  -1.3598  -1.3428
    -1.3396  -1.3319  -1.3141  -1.2974   0.7990   0.9260   1.0950   1.1199
     1.1768   1.2947   1.3505   1.4862   1.7164   1.8453

          k = 0.5000 0.0962 0.0000 ( 59291 PWs)   bands (ev):

   -72.4634 -72.4629 -43.9291 -43.9284 -43.9229 -43.9224 -43.9183 -43.9178
   -21.1380 -20.9434 -20.7422 -20.1831 -19.8288 -19.4921 -19.3469 -19.1942
   -19.0394 -18.8035 -18.6556 -18.5745 -18.1618 -18.1290 -17.9433 -17.7478
   -12.3710 -12.1374 -12.0664 -11.9338 -11.7158 -11.6684 -11.5786 -10.9663
   -10.9117 -10.6456 -10.5492  -9.8819  -9.7176  -9.3609  -9.1341  -8.6799
    -8.6471  -8.5750  -8.4229  -8.4162  -8.1831  -8.1278  -8.0992  -8.0624
    -7.7085  -7.6476  -7.5170  -7.4989  -7.3742  -7.1961  -7.0921  -6.8853
    -6.6462  -6.4184  -6.2191  -6.1810  -5.9820  -5.9523  -5.8067  -5.7707
    -5.4764  -5.4210  -5.2105  -5.0810  -4.4451  -4.3997  -4.1092  -3.7906
    -2.2273  -1.7734  -1.4267  -1.4147  -1.3909  -1.3707  -1.3600  -1.3477
    -1.3397  -1.3384  -1.3182  -1.3104   0.9118   1.0176   1.0972   1.1505
     1.2590   1.3564   1.3946   1.4469   1.5878   1.7862

          k =-0.3333 0.3849 0.0000 ( 59291 PWs)   bands (ev):

   -72.4634 -72.4629 -43.9290 -43.9284 -43.9229 -43.9224 -43.9183 -43.9178
   -21.1389 -20.9410 -20.7439 -20.1831 -19.8302 -19.4907 -19.3423 -19.1970
   -19.0422 -18.8021 -18.6570 -18.5734 -18.1640 -18.1264 -17.9435 -17.7479
   -12.3713 -12.1358 -12.0686 -11.9329 -11.7056 -11.6798 -11.5775 -10.9660
   -10.9115 -10.6450 -10.5501  -9.8826  -9.7176  -9.3605  -9.1346  -8.6831
    -8.6459  -8.5770  -8.4149  -8.4107  -8.1848  -8.1351  -8.0874  -8.0751
    -7.7088  -7.6459  -7.5236  -7.4930  -7.3739  -7.1961  -7.0927  -6.8904
    -6.6443  -6.4131  -6.2042  -6.1833  -5.9921  -5.9516  -5.8068  -5.7798
    -5.4761  -5.4168  -5.2103  -5.0809  -4.4477  -4.3979  -4.1086  -3.7906
    -2.2709  -1.7050  -1.4282  -1.4185  -1.3985  -1.3661  -1.3598  -1.3428
    -1.3396  -1.3319  -1.3141  -1.2974   0.7990   0.9260   1.0950   1.1199
     1.1768   1.2947   1.3505   1.4862   1.7164   1.8453

          k =-0.1667-0.0962 0.0000 ( 59226 PWs)   bands (ev):

   -72.4634 -72.4629 -43.9290 -43.9284 -43.9229 -43.9224 -43.9182 -43.9178
   -21.3374 -20.5598 -20.3683 -20.3645 -20.0119 -20.0051 -19.8298 -18.7527
   -18.7472 -18.4027 -18.3881 -18.3807 -18.2979 -18.2806 -18.1003 -18.0965
   -12.5343 -12.5228 -12.4317 -11.6043 -11.6007 -11.4548 -11.4395 -10.9494
   -10.9479  -9.9526  -9.9504  -9.6995  -9.4022  -9.3922  -9.2542  -9.2521
    -9.0657  -9.0638  -8.9469  -8.3473  -8.3456  -7.9263  -7.9212  -7.9052
    -7.8692  -7.7941  -7.6270  -7.6141  -7.1485  -7.1246  -6.9831  -6.9116
    -6.9093  -6.8751  -6.5544  -6.5524  -6.2813  -5.3645  -5.3495  -5.1670
    -5.0892  -4.8399  -4.8119  -4.7777  -4.6554  -4.6132  -4.3708  -4.3614
    -2.3532  -1.5872  -1.4364  -1.4252  -1.4081  -1.3689  -1.3564  -1.3435
    -1.3305  -1.3201  -1.3068  -1.2421   0.6302   0.9317   0.9900   1.1627
     1.2303   1.3187   1.4360   1.5650   1.6051   1.6469

          k =-0.0000-0.1925 0.0000 ( 59226 PWs)   bands (ev):

   -72.4634 -72.4629 -43.9290 -43.9284 -43.9229 -43.9224 -43.9182 -43.9178
   -21.3375 -20.5549 -20.3825 -20.3586 -20.0144 -19.9956 -19.8334 -18.7584
   -18.7380 -18.4098 -18.4072 -18.3737 -18.2794 -18.2781 -18.1102 -18.0919
   -12.5301 -12.5275 -12.4312 -11.6114 -11.5951 -11.4472 -11.4443 -10.9527
   -10.9463  -9.9551  -9.9477  -9.7002  -9.3983  -9.3950  -9.2543  -9.2518
    -9.0653  -9.0650  -8.9476  -8.3485  -8.3432  -7.9244  -7.9236  -7.8846
    -7.8669  -7.7955  -7.6789  -7.5963  -7.1500  -7.0964  -6.9816  -6.9152
    -6.9071  -6.8890  -6.5576  -6.5485  -6.2819  -5.3807  -5.3240  -5.1674
    -5.0888  -4.8546  -4.8425  -4.7697  -4.6169  -4.6134  -4.3951  -4.3473
    -2.3778  -1.5506  -1.4379  -1.4277  -1.4120  -1.3691  -1.3538  -1.3444
    -1.3287  -1.3172  -1.3025  -1.1963   0.4657   0.8488   0.9484   1.1329
     1.2304   1.3496   1.4738   1.5954   1.6569   1.6799

          k = 0.5000-0.8660 0.0000 ( 59292 PWs)   bands (ev):

   -72.4634 -72.4629 -43.9291 -43.9284 -43.9229 -43.9224 -43.9182 -43.9178
   -21.0781 -21.0664 -20.4926 -20.4892 -19.4544 -19.4467 -19.4348 -19.4303
   -19.0193 -19.0100 -18.3569 -18.3453 -18.3434 -18.3271 -17.8170 -17.8135
   -12.0999 -12.0900 -12.0891 -12.0764 -11.9012 -11.8971 -11.3556 -11.3484
   -10.2590 -10.2557 -10.1589 -10.1560 -10.1531 -10.1503  -8.6065  -8.5765
    -8.5750  -8.5704  -8.5668  -8.5604  -7.8867  -7.8863  -7.8843  -7.8821
    -7.8465  -7.8440  -7.7969  -7.7876  -7.5165  -7.5072  -6.6350  -6.6311
    -6.3839  -6.3589  -6.3260  -6.3165  -6.2158  -6.2093  -5.7358  -5.7203
    -5.5720  -5.5631  -4.7570  -4.7429  -4.7313  -4.6995  -3.9054  -3.8973
    -2.2271  -1.7736  -1.4267  -1.4146  -1.3909  -1.3705  -1.3591  -1.3478
    -1.3400  -1.3384  -1.3182  -1.3104   0.9629   1.0294   1.0757   1.2330
     1.2689   1.3323   1.4333   1.5502   1.6251   1.6444

          k =-1.0000 0.0000 0.0000 ( 59292 PWs)   bands (ev):

   -72.4634 -72.4629 -43.9291 -43.9284 -43.9229 -43.9224 -43.9182 -43.9178
   -21.0979 -21.0439 -20.5044 -20.4817 -19.4560 -19.4443 -19.4388 -19.4213
   -19.0368 -18.9949 -18.3809 -18.3748 -18.3089 -18.3082 -17.8253 -17.8070
   -12.1190 -12.1110 -12.0627 -12.0587 -11.9096 -11.8898 -11.3732 -11.3329
   -10.2721 -10.2557 -10.1606 -10.1557 -10.1460 -10.1440  -8.6531  -8.5914
    -8.5892  -8.5459  -8.5446  -8.5163  -7.8994  -7.8992  -7.8814  -7.8770
    -7.8513  -7.8370  -7.8240  -7.7637  -7.5362  -7.4896  -6.6380  -6.6261
    -6.3922  -6.3490  -6.3282  -6.2951  -6.2316  -6.1967  -5.7584  -5.7081
    -5.5892  -5.5460  -4.8121  -4.7758  -4.6781  -4.6658  -3.9249  -3.8803
    -2.3618  -1.5612  -1.4324  -1.4279  -1.4118  -1.3637  -1.3542  -1.3442
    -1.3314  -1.3193  -1.3021  -1.1978   0.4381   0.5857   1.0632   1.0757
     1.1672   1.4246   1.5745   1.5960   1.6163   1.8622

 ------ SPIN DOWN ----------


          k = 0.1667 0.2887 0.0000 ( 59267 PWs)   bands (ev):

   -68.0918 -68.0911 -39.5954 -39.5948 -39.5839 -39.5834 -39.5812 -39.5807
   -21.2637 -20.6798 -20.6707 -20.1253 -20.1095 -19.6069 -19.5979 -19.1164
   -18.7145 -18.7064 -18.4780 -18.4641 -18.2104 -18.1033 -18.0957 -17.8664
   -12.5029 -12.2276 -12.2181 -11.8409 -11.8367 -11.6779 -11.2125 -11.2060
   -10.4105 -10.3864 -10.1376 -10.1324  -9.6086  -9.6062  -8.8477  -8.8385
    -8.8319  -8.7874  -8.7791  -8.6156  -8.2165  -8.0436  -8.0240  -7.8495
    -7.8450  -7.4572  -7.4545  -7.2876  -7.2538  -7.2284  -7.2246  -6.9831
    -6.9714  -6.5638  -6.5457  -6.1730  -6.1716  -5.8731  -5.4371  -5.2902
    -5.2773  -5.2191  -4.9254  -4.8958  -4.5056  -4.3601  -4.3498  -3.9832
    -0.2725   0.6794   1.0582   1.1915   1.3576   1.4010   1.4447   1.5035
     1.5521   1.8101   1.9028   2.1103   2.1965   2.2504   2.2968   2.3831
     2.4453   2.5034   2.5321   2.5771   2.6015   2.6350

          k = 0.1667-0.4811 0.0000 ( 59291 PWs)   bands (ev):

   -68.0918 -68.0911 -39.5954 -39.5948 -39.5839 -39.5834 -39.5812 -39.5807
   -21.1326 -20.9303 -20.7397 -20.1775 -19.8214 -19.4838 -19.3338 -19.1914
   -19.0314 -18.7965 -18.6549 -18.5628 -18.1626 -18.1099 -17.9389 -17.7405
   -12.3669 -12.1321 -12.0640 -11.9259 -11.7007 -11.6769 -11.5718 -10.9608
   -10.9084 -10.6417 -10.5426  -9.8783  -9.7123  -9.3547  -9.1299  -8.6590
    -8.6417  -8.5714  -8.4086  -8.3744  -8.1806  -8.1226  -8.0826  -8.0690
    -7.7068  -7.6425  -7.5132  -7.4936  -7.3547  -7.1895  -7.0870  -6.8617
    -6.6403  -6.3917  -6.1789  -6.1759  -5.9745  -5.9474  -5.8024  -5.7475
    -5.4706  -5.4018  -5.1999  -5.0517  -4.4377  -4.3628  -4.0935  -3.7712
    -0.2344   0.6507   1.0088   1.1117   1.1421   1.2743   1.3496   1.7590
     1.8428   1.8863   2.0397   2.1012   2.2339   2.2794   2.2953   2.3583
     2.4455   2.4692   2.5058   2.5204   2.5645   2.6477

          k = 0.1667-0.0962 0.0000 ( 59226 PWs)   bands (ev):

   -68.0918 -68.0911 -39.5954 -39.5948 -39.5839 -39.5834 -39.5812 -39.5807
   -21.3302 -20.5517 -20.3616 -20.3583 -20.0037 -19.9983 -19.8238 -18.7442
   -18.7396 -18.3942 -18.3813 -18.3731 -18.2892 -18.2743 -18.0936 -18.0906
   -12.5285 -12.5190 -12.4270 -11.5997 -11.5966 -11.4491 -11.4357 -10.9445
   -10.9432  -9.9476  -9.9456  -9.6943  -9.3971  -9.3877  -9.2486  -9.2469
    -9.0610  -9.0594  -8.9211  -8.3416  -8.3401  -7.9215  -7.9169  -7.8756
    -7.8612  -7.7897  -7.6047  -7.5966  -7.1188  -7.1040  -6.9782  -6.9070
    -6.9051  -6.8595  -6.5497  -6.5479  -6.2766  -5.3373  -5.3275  -5.1620
    -5.0841  -4.8154  -4.7915  -4.7572  -4.6299  -4.5986  -4.3512  -4.3448
    -0.3078   0.7111   1.0850   1.1120   1.2266   1.4559   1.4934   1.5554
     1.7986   1.9018   1.9790   2.0285   2.0875   2.1349   2.2917   2.3778
     2.4458   2.4765   2.5081   2.5784   2.6076   2.6347

          k =-0.5000-0.8660 0.0000 ( 59292 PWs)   bands (ev):

   -68.0918 -68.0911 -39.5954 -39.5948 -39.5839 -39.5834 -39.5812 -39.5807
   -21.0699 -21.0600 -20.4857 -20.4827 -19.4451 -19.4389 -19.4285 -19.4240
   -19.0115 -19.0040 -18.3477 -18.3375 -18.3353 -18.3223 -17.8096 -17.8065
   -12.0935 -12.0850 -12.0844 -12.0732 -11.8968 -11.8933 -11.3504 -11.3440
   -10.2538 -10.2508 -10.1530 -10.1504 -10.1484 -10.1460  -8.5753  -8.5700
    -8.5659  -8.5628  -8.5570  -8.5523  -7.8819  -7.8815  -7.8796  -7.8779
    -7.8408  -7.8385  -7.7747  -7.7677  -7.5117  -7.5034  -6.6298  -6.6266
    -6.3469  -6.3310  -6.3090  -6.3018  -6.2103  -6.2046  -5.7135  -5.7026
    -5.5665  -5.5588  -4.7311  -4.7196  -4.7095  -4.6870  -3.8853  -3.8791
    -0.0978   0.2815   1.0231   1.0606   1.4432   1.4695   1.5016   1.5350
     1.7547   1.7696   2.0481   2.0778   2.1806   2.2693   2.3873   2.3990
     2.4427   2.4668   2.5150   2.5339   2.5696   2.6633

          k =-0.1667 0.2887 0.0000 ( 59267 PWs)   bands (ev):

   -68.0918 -68.0911 -39.5954 -39.5948 -39.5839 -39.5834 -39.5812 -39.5807
   -21.2637 -20.6798 -20.6707 -20.1253 -20.1095 -19.6069 -19.5978 -19.1165
   -18.7146 -18.7064 -18.4781 -18.4641 -18.2104 -18.1033 -18.0957 -17.8664
   -12.5029 -12.2276 -12.2182 -11.8409 -11.8367 -11.6779 -11.2125 -11.2059
   -10.4105 -10.3864 -10.1376 -10.1324  -9.6086  -9.6062  -8.8477  -8.8385
    -8.8319  -8.7875  -8.7791  -8.6155  -8.2166  -8.0436  -8.0240  -7.8495
    -7.8450  -7.4572  -7.4545  -7.2876  -7.2538  -7.2283  -7.2246  -6.9832
    -6.9714  -6.5638  -6.5457  -6.1730  -6.1716  -5.8730  -5.4372  -5.2902
    -5.2773  -5.2190  -4.9254  -4.8958  -4.5056  -4.3602  -4.3498  -3.9832
    -0.2725   0.6794   1.0582   1.1915   1.3576   1.4010   1.4447   1.5035
     1.5521   1.8102   1.9028   2.1103   2.1965   2.2501   2.2967   2.3833
     2.4453   2.5033   2.5320   2.5771   2.6014   2.6350

          k = 0.3333 0.0000 0.0000 ( 59267 PWs)   bands (ev):

   -68.0918 -68.0911 -39.5954 -39.5948 -39.5839 -39.5834 -39.5812 -39.5807
   -21.2634 -20.6983 -20.6521 -20.1192 -20.1148 -19.6253 -19.5806 -19.1177
   -18.7263 -18.6916 -18.4729 -18.4706 -18.2072 -18.1196 -18.0835 -17.8660
   -12.5028 -12.2239 -12.2216 -11.8477 -11.8315 -11.6764 -11.2264 -11.1927
   -10.4095 -10.3865 -10.1465 -10.1237  -9.6133  -9.6007  -8.8499  -8.8415
    -8.8256  -8.8036  -8.7636  -8.6161  -8.2177  -8.0829  -7.9844  -7.8472
    -7.8458  -7.4613  -7.4503  -7.2816  -7.2574  -7.2356  -7.2173  -6.9786
    -6.9769  -6.6010  -6.5121  -6.1751  -6.1689  -5.8755  -5.4369  -5.3013
    -5.2620  -5.2194  -4.9172  -4.9057  -4.5007  -4.3777  -4.3376  -3.9830
    -0.2104   0.4580   1.0731   1.1711   1.3577   1.4590   1.4899   1.5096
     1.5836   1.8268   2.0514   2.1198   2.2379   2.2634   2.3141   2.4186
     2.4430   2.4610   2.5327   2.5647   2.5953   2.6098

          k =-0.1667-0.4811 0.0000 ( 59291 PWs)   bands (ev):

   -68.0918 -68.0911 -39.5954 -39.5948 -39.5839 -39.5834 -39.5812 -39.5807
   -21.1326 -20.9303 -20.7397 -20.1775 -19.8214 -19.4838 -19.3338 -19.1914
   -19.0314 -18.7965 -18.6549 -18.5628 -18.1626 -18.1099 -17.9389 -17.7405
   -12.3669 -12.1320 -12.0640 -11.9259 -11.7006 -11.6769 -11.5719 -10.9608
   -10.9084 -10.6417 -10.5426  -9.8783  -9.7123  -9.3547  -9.1300  -8.6590
    -8.6417  -8.5714  -8.4085  -8.3744  -8.1806  -8.1226  -8.0826  -8.0691
    -7.7068  -7.6425  -7.5131  -7.4936  -7.3547  -7.1894  -7.0870  -6.8617
    -6.6403  -6.3917  -6.1789  -6.1760  -5.9745  -5.9474  -5.8024  -5.7475
    -5.4706  -5.4018  -5.1999  -5.0517  -4.4377  -4.3628  -4.0935  -3.7712
    -0.2344   0.6507   1.0089   1.1117   1.1421   1.2743   1.3496   1.7590
     1.8428   1.8862   2.0397   2.1012   2.2339   2.2794   2.2954   2.3584
     2.4455   2.4690   2.5058   2.5204   2.5644   2.6497

          k = 0.5000-0.0962 0.0000 ( 59291 PWs)   bands (ev):

   -68.0918 -68.0911 -39.5954 -39.5948 -39.5840 -39.5834 -39.5812 -39.5807
   -21.1307 -20.9356 -20.7362 -20.1763 -19.8218 -19.4846 -19.3383 -19.1881
   -19.0320 -18.7964 -18.6487 -18.5672 -18.1540 -18.1210 -17.9368 -17.7404
   -12.3663 -12.1325 -12.0623 -11.9288 -11.7101 -11.6656 -11.5736 -10.9612
   -10.9067 -10.6404 -10.5443  -9.8767  -9.7128  -9.3555  -9.1295  -8.6531
    -8.6421  -8.5700  -8.4114  -8.3919  -8.1790  -8.1111  -8.0927  -8.0598
    -7.7041  -7.6430  -7.5124  -7.4946  -7.3514  -7.1905  -7.0875  -6.8625
    -6.6405  -6.3940  -6.1889  -6.1764  -5.9660  -5.9470  -5.8019  -5.7486
    -5.4715  -5.4002  -5.1888  -5.0606  -4.4242  -4.3793  -4.0909  -3.7714
    -0.1002   0.2878   1.0068   1.1081   1.1511   1.2914   1.6256   1.7464
     1.7875   1.9975   2.0405   2.1639   2.2107   2.2750   2.3360   2.3760
     2.4452   2.4900   2.5200   2.5475   2.5896   2.6322

          k =-0.3333-0.3849 0.0000 ( 59291 PWs)   bands (ev):

   -68.0918 -68.0911 -39.5954 -39.5948 -39.5839 -39.5834 -39.5812 -39.5807
   -21.1314 -20.9338 -20.7375 -20.1762 -19.8228 -19.4836 -19.3350 -19.1901
   -19.0340 -18.7954 -18.6496 -18.5665 -18.1556 -18.1193 -17.9369 -17.7405
   -12.3666 -12.1311 -12.0641 -11.9281 -11.7014 -11.6753 -11.5727 -10.9609
   -10.9066 -10.6400 -10.5450  -9.8772  -9.7129  -9.3552  -9.1299  -8.6548
    -8.6411  -8.5714  -8.4096  -8.3855  -8.1803  -8.1152  -8.0827  -8.0706
    -7.7045  -7.6416  -7.5178  -7.4899  -7.3512  -7.1906  -7.0879  -6.8654
    -6.6390  -6.3912  -6.1808  -6.1778  -5.9715  -5.9463  -5.8021  -5.7536
    -5.4713  -5.3980  -5.1889  -5.0604  -4.4255  -4.3782  -4.0906  -3.7715
    -0.1583   0.4070   1.0074   1.0818   1.1872   1.2795   1.5033   1.7581
     1.9230   1.9623   2.0359   2.0634   2.1958   2.2952   2.3070   2.4052
     2.4295   2.4785   2.5060   2.5503   2.5899   2.6219

          k = 0.5000 0.0962 0.0000 ( 59291 PWs)   bands (ev):

   -68.0918 -68.0911 -39.5954 -39.5948 -39.5839 -39.5834 -39.5812 -39.5807
   -21.1307 -20.9356 -20.7362 -20.1763 -19.8218 -19.4846 -19.3383 -19.1881
   -19.0320 -18.7964 -18.6487 -18.5672 -18.1541 -18.1211 -17.9368 -17.7404
   -12.3663 -12.1325 -12.0622 -11.9288 -11.7101 -11.6656 -11.5736 -10.9611
   -10.9067 -10.6405 -10.5443  -9.8767  -9.7129  -9.3555  -9.1295  -8.6531
    -8.6421  -8.5700  -8.4114  -8.3919  -8.1790  -8.1111  -8.0927  -8.0598
    -7.7042  -7.6429  -7.5124  -7.4947  -7.3514  -7.1905  -7.0875  -6.8625
    -6.6404  -6.3940  -6.1889  -6.1764  -5.9660  -5.9470  -5.8020  -5.7486
    -5.4715  -5.4002  -5.1888  -5.0605  -4.4242  -4.3792  -4.0909  -3.7714
    -0.1002   0.2878   1.0068   1.1081   1.1510   1.2913   1.6256   1.7463
     1.7875   1.9975   2.0405   2.1640   2.2107   2.2749   2.3360   2.3760
     2.4454   2.4900   2.5200   2.5476   2.5896   2.6326

          k =-0.3333 0.3849 0.0000 ( 59291 PWs)   bands (ev):

   -68.0918 -68.0911 -39.5954 -39.5948 -39.5839 -39.5834 -39.5812 -39.5807
   -21.1314 -20.9338 -20.7375 -20.1762 -19.8228 -19.4836 -19.3350 -19.1901
   -19.0340 -18.7954 -18.6496 -18.5665 -18.1556 -18.1193 -17.9369 -17.7405
   -12.3665 -12.1311 -12.0641 -11.9281 -11.7014 -11.6753 -11.5727 -10.9609
   -10.9066 -10.6399 -10.5450  -9.8773  -9.7129  -9.3552  -9.1299  -8.6548
    -8.6412  -8.5713  -8.4096  -8.3855  -8.1804  -8.1152  -8.0826  -8.0705
    -7.7044  -7.6416  -7.5178  -7.4898  -7.3512  -7.1905  -7.0879  -6.8654
    -6.6391  -6.3912  -6.1808  -6.1779  -5.9715  -5.9464  -5.8020  -5.7536
    -5.4712  -5.3979  -5.1889  -5.0604  -4.4255  -4.3782  -4.0906  -3.7715
    -0.1583   0.4070   1.0074   1.0818   1.1872   1.2796   1.5033   1.7581
     1.9231   1.9624   2.0359   2.0634   2.1958   2.2953   2.3071   2.4052
     2.4295   2.4783   2.5058   2.5498   2.5900   2.6238

          k =-0.1667-0.0962 0.0000 ( 59226 PWs)   bands (ev):

   -68.0918 -68.0911 -39.5954 -39.5948 -39.5839 -39.5834 -39.5812 -39.5807
   -21.3302 -20.5517 -20.3616 -20.3583 -20.0037 -19.9983 -19.8238 -18.7442
   -18.7396 -18.3942 -18.3813 -18.3731 -18.2892 -18.2743 -18.0936 -18.0906
   -12.5285 -12.5190 -12.4270 -11.5997 -11.5966 -11.4491 -11.4357 -10.9445
   -10.9432  -9.9476  -9.9457  -9.6942  -9.3970  -9.3877  -9.2486  -9.2470
    -9.0610  -9.0594  -8.9211  -8.3417  -8.3401  -7.9215  -7.9168  -7.8756
    -7.8612  -7.7898  -7.6047  -7.5966  -7.1188  -7.1039  -6.9782  -6.9069
    -6.9050  -6.8595  -6.5497  -6.5479  -6.2767  -5.3373  -5.3275  -5.1619
    -5.0842  -4.8154  -4.7915  -4.7572  -4.6299  -4.5986  -4.3512  -4.3448
    -0.3078   0.7111   1.0850   1.1120   1.2267   1.4559   1.4935   1.5554
     1.7985   1.9018   1.9790   2.0285   2.0876   2.1349   2.2918   2.3778
     2.4456   2.4767   2.5079   2.5784   2.6080   2.6344

          k =-0.0000-0.1925 0.0000 ( 59226 PWs)   bands (ev):

   -68.0918 -68.0911 -39.5954 -39.5948 -39.5839 -39.5834 -39.5812 -39.5807
   -21.3303 -20.5481 -20.3734 -20.3526 -20.0069 -19.9900 -19.8265 -18.7496
   -18.7318 -18.3983 -18.3965 -18.3677 -18.2752 -18.2734 -18.1019 -18.0859
   -12.5249 -12.5230 -12.4266 -11.6061 -11.5913 -11.4425 -11.4399 -10.9473
   -10.9417  -9.9497  -9.9435  -9.6947  -9.3937  -9.3902  -9.2490  -9.2464
    -9.0609  -9.0601  -8.9215  -8.3430  -8.3379  -7.9195  -7.9193  -7.8684
    -7.8556  -7.7909  -7.6373  -7.5828  -7.1238  -7.0841  -6.9771  -6.9102
    -6.9030  -6.8672  -6.5525  -6.5445  -6.2771  -5.3500  -5.3099  -5.1622
    -5.0839  -4.8214  -4.8110  -4.7525  -4.6060  -4.6011  -4.3678  -4.3337
    -0.3298   0.8502   1.0906   1.0981   1.2393   1.4159   1.4906   1.5076
     1.7846   1.8668   1.9057   1.9545   2.0231   2.2154   2.3330   2.3507
     2.3952   2.4990   2.5129   2.5827   2.6443   2.7091

          k = 0.5000-0.8660 0.0000 ( 59292 PWs)   bands (ev):

   -68.0918 -68.0911 -39.5954 -39.5948 -39.5839 -39.5834 -39.5812 -39.5807
   -21.0699 -21.0600 -20.4857 -20.4827 -19.4451 -19.4389 -19.4285 -19.4240
   -19.0115 -19.0040 -18.3478 -18.3375 -18.3354 -18.3223 -17.8096 -17.8065
   -12.0935 -12.0850 -12.0844 -12.0732 -11.8968 -11.8932 -11.3505 -11.3439
   -10.2538 -10.2509 -10.1531 -10.1505 -10.1484 -10.1460  -8.5753  -8.5700
    -8.5660  -8.5627  -8.5569  -8.5523  -7.8819  -7.8815  -7.8796  -7.8779
    -7.8408  -7.8385  -7.7747  -7.7677  -7.5117  -7.5035  -6.6298  -6.6265
    -6.3469  -6.3310  -6.3090  -6.3018  -6.2103  -6.2045  -5.7136  -5.7026
    -5.5666  -5.5588  -4.7311  -4.7196  -4.7095  -4.6870  -3.8854  -3.8792
    -0.0978   0.2815   1.0231   1.0606   1.4432   1.4694   1.5016   1.5350
     1.7546   1.7696   2.0482   2.0778   2.1808   2.2692   2.3870   2.3990
     2.4427   2.4671   2.5154   2.5341   2.5695   2.6598

          k =-1.0000 0.0000 0.0000 ( 59292 PWs)   bands (ev):

   -68.0918 -68.0911 -39.5954 -39.5948 -39.5839 -39.5834 -39.5812 -39.5807
   -21.0872 -21.0407 -20.4958 -20.4758 -19.4469 -19.4370 -19.4318 -19.4166
   -19.0257 -18.9915 -18.3672 -18.3619 -18.3070 -18.3069 -17.8165 -17.8007
   -12.1115 -12.1040 -12.0608 -12.0566 -11.9045 -11.8865 -11.3663 -11.3297
   -10.2646 -10.2508 -10.1546 -10.1512 -10.1419 -10.1404  -8.6111  -8.5846
    -8.5818  -8.5437  -8.5427  -8.5103  -7.8931  -7.8919  -7.8772  -7.8729
    -7.8340  -7.8337  -7.7992  -7.7507  -7.5292  -7.4876  -6.6326  -6.6222
    -6.3537  -6.3269  -6.3113  -6.2855  -6.2241  -6.1930  -5.7306  -5.6909
    -5.5815  -5.5440  -4.7702  -4.7417  -4.6721  -4.6636  -3.8990  -3.8669
    -0.2625   0.8012   1.0441   1.0542   1.2683   1.3600   1.4185   1.5829
     1.6172   1.7064   1.8830   2.1436   2.1912   2.2904   2.3058   2.3842
     2.4091   2.5074   2.5444   2.5727   2.6283   2.6524

     the Fermi energy is    -0.8146 ev

!    total energy              =   -1133.81299627 Ry

     total all-electron energy =     -6753.488699 Ry
     estimated scf accuracy    <       0.00000003 Ry
     smearing contrib. (-TS)   =      -0.00000000 Ry
     internal energy E=F+TS    =   -1133.81299627 Ry

     The total energy is F=E-TS. E is the sum of the following terms:
     one-electron contribution =   -3916.37565160 Ry
     hartree contribution      =    1986.78727727 Ry
     xc contribution           =    -186.20207626 Ry
     ewald contribution        =    1341.34533025 Ry
     DFT-D3 Dispersion         =      -0.13991756 Ry
     one-center paw contrib.   =    -359.22795838 Ry

     total magnetization       =    12.00 Bohr mag/cell
     absolute magnetization    =    12.00 Bohr mag/cell

     convergence has been achieved in  12 iterations

     Writing output data file ./mytmp/Crdimer0.28-0.2.save/
 
     init_run     :     18.74s CPU     20.02s WALL (       1 calls)
     electrons    :    471.67s CPU    511.78s WALL (       1 calls)

     Called by init_run:
     wfcinit      :     13.73s CPU     14.43s WALL (       1 calls)
     potinit      :      1.52s CPU      1.61s WALL (       1 calls)
     hinit0       :      1.52s CPU      1.59s WALL (       1 calls)

     Called by electrons:
     c_bands      :    374.12s CPU    397.51s WALL (      12 calls)
     sum_band     :     69.47s CPU     79.01s WALL (      12 calls)
     v_of_rho     :      6.41s CPU      7.03s WALL (      13 calls)
     newd         :     15.54s CPU     21.74s WALL (      13 calls)
     PAW_pot      :      5.91s CPU      6.45s WALL (      13 calls)
     mix_rho      :      0.83s CPU      0.91s WALL (      12 calls)

     Called by c_bands:
     init_us_2    :      4.33s CPU      4.34s WALL (     750 calls)
     cegterg      :    363.51s CPU    386.85s WALL (     360 calls)

     Called by *egterg:
     cdiaghg      :     22.80s CPU     36.42s WALL (    2489 calls)
     h_psi        :    224.67s CPU    232.76s WALL (    2519 calls)
     s_psi        :     24.64s CPU     24.67s WALL (    2519 calls)
     g_psi        :      0.66s CPU      0.68s WALL (    2129 calls)

     Called by h_psi:
     h_psi:calbec :     26.61s CPU     27.27s WALL (    2519 calls)
     vloc_psi     :    170.82s CPU    178.13s WALL (    2519 calls)
     add_vuspsi   :     25.23s CPU     25.32s WALL (    2519 calls)

     General routines
     calbec       :     34.86s CPU     35.69s WALL (    2879 calls)
     fft          :      8.39s CPU     11.94s WALL (     319 calls)
     ffts         :      0.10s CPU      0.10s WALL (      50 calls)
     fftw         :    173.02s CPU    180.34s WALL (  227166 calls)
     interpolate  :      0.36s CPU      0.38s WALL (      26 calls)
 
     Parallel routines
     fft_scatt_xy :     27.92s CPU     28.88s WALL (  227535 calls)
     fft_scatt_yz :     71.79s CPU     78.70s WALL (  227535 calls)
 
     PWSCF        :   8m12.45s CPU   8m56.61s WALL

 
   This run was terminated on:  23:53:27  29Mar2021            

=------------------------------------------------------------------------------=
   JOB DONE.
=------------------------------------------------------------------------------=
