
     Program PWSCF v.6.7MaX starts on 29Mar2021 at 22:43: 7 

     This program is part of the open-source Quantum ESPRESSO suite
     for quantum simulation of materials; please cite
         "P. Giannozzi et al., J. Phys.:Condens. Matter 21 395502 (2009);
         "P. Giannozzi et al., J. Phys.:Condens. Matter 29 465901 (2017);
          URL http://www.quantum-espresso.org", 
     in publications or presentations arising from this work. More details at
     http://www.quantum-espresso.org/quote

     Parallel version (MPI), running on    48 processors

     MPI processes distributed on     1 nodes
     R & G space division:  proc/nbgrp/npool/nimage =      48
     Reading input from Crdimer0.26-0.1.scf.in

     Current dimensions of program PWSCF are:
     Max number of different atomic species (ntypx) = 10
     Max number of k-points (npk) =  40000
     Max angular momentum in pseudopotentials (lmaxx) =  3
     file N.pbe-n-kjpaw_psl.1.0.0.UPF: wavefunction(s)  2S renormalized
     file Cr.pbe-spn-kjpaw_psl.1.0.0.UPF: wavefunction(s)  3S 3P 3D renormalized
     file Cr.pbe-spn-kjpaw_psl.1.0.0.UPF: wavefunction(s)  3S 3P 3D renormalized

     --------------------------------------------
     Parameters for DFT-D3 Dispersion Correction:
     --------------------------------------------
       Reference C6 values for interpolation: 

         atom   Coordination number   C6
         B          0.000           214.36
         B          0.971           150.74
         B          1.944           106.23
         B          2.913            62.89
         B          4.586            56.06
         N          0.000            50.54
         N          0.994            44.25
         N          2.014            39.35
         N          2.990            31.16
         Cr1        0.000          1381.48
         Cr1        1.827           571.38
         Cr1       10.619           306.69
         Cr2        0.000          1381.48
         Cr2        1.827           571.38
         Cr2       10.619           306.69

       Values used:

         atom   Coordination number  R0_AB[au]  C6      C8
         B          3.345            3.039     62.89   2505.77
         B          3.336            3.039     62.89   2505.99
         B          3.339            3.039     62.89   2505.92
         B          3.340            3.039     62.89   2505.89
         B          3.343            3.039     62.89   2505.82
         B          3.336            3.039     62.89   2505.99
         N          3.135            2.478     31.22    688.69
         N          3.134            2.478     31.22    688.70
         N          3.145            2.478     31.21    688.60
         N          3.149            2.478     31.21    688.57
         N          3.135            2.478     31.22    688.69
         N          3.134            2.478     31.22    688.70
         N          3.138            2.478     31.22    688.66
         N          3.135            2.478     31.22    688.69
         N          3.135            2.478     31.22    688.69
         B          3.336            3.039     62.89   2506.00
         B          3.336            3.039     62.89   2505.99
         B          3.336            3.039     62.89   2505.99
         B          3.343            3.039     62.89   2505.82
         B          3.345            3.039     62.89   2505.77
         B          3.336            3.039     62.89   2506.00
         N          3.138            2.478     31.22    688.66
         B          3.335            3.039     62.89   2506.00
         B          3.335            3.039     62.89   2506.00
         B          3.365            3.039     62.87   2505.20
         N          3.134            2.478     31.22    688.70
         N          3.134            2.478     31.22    688.70
         N          3.136            2.478     31.22    688.67
         N          3.136            2.478     31.22    688.67
         N          3.145            2.478     31.21    688.60
         N          3.149            2.478     31.21    688.57
         B          3.365            3.039     62.87   2505.20
         Cr1        0.097            3.252   1381.48 127494.80
         Cr2        0.097            3.252   1381.48 127494.80

         Molecular C6 ( Ry / a.u.^6 ) =     79164.77


     Subspace diagonalization in iterative solution of the eigenvalue problem:
     one sub-group per band group will be used
     scalapack distributed-memory algorithm (size of sub-group:  6*  6 procs)

 
     Parallelization info
     --------------------
     sticks:   dense  smooth     PW     G-vecs:    dense   smooth      PW
     Min         235      98     26                36277     9874    1408
     Max         236      99     27                36282     9883    1425
     Sum       11311    4741   1285              1741401   474235   68095
 


     bravais-lattice index     =            4
     lattice parameter (alat)  =      18.9275  a.u.
     unit-cell volume          =   10553.3021 (a.u.)^3
     number of atoms/cell      =           34
     number of atomic types    =            4
     number of electrons       =       156.00
     number of Kohn-Sham states=           94
     kinetic-energy cutoff     =      48.0000  Ry
     charge density cutoff     =     457.0000  Ry
     scf convergence threshold =      1.0E-07
     mixing beta               =       0.5000
     number of iterations used =            8  plain     mixing
     Exchange-correlation= SLA  PW   PBX  PBC
                           (   1   4   3   4   0   0   0)

     celldm(1)=  18.927497  celldm(2)=   0.000000  celldm(3)=   1.797125
     celldm(4)=   0.000000  celldm(5)=   0.000000  celldm(6)=   0.000000

     crystal axes: (cart. coord. in units of alat)
               a(1) = (   1.000000   0.000000   0.000000 )  
               a(2) = (  -0.500000   0.866025   0.000000 )  
               a(3) = (   0.000000   0.000000   1.797125 )  

     reciprocal axes: (cart. coord. in units 2 pi/alat)
               b(1) = (  1.000000  0.577350  0.000000 )  
               b(2) = (  0.000000  1.154701  0.000000 )  
               b(3) = (  0.000000  0.000000  0.556444 )  


     PseudoPot. # 1 for B  read from file:
     /home/sf05/q-e-qe-6.7MaX-Release/pseudo/B.pbe-n-kjpaw_psl.1.0.0.UPF
     MD5 check sum: d9c678ba5d3b2fd7b74e61139c9288d8
     Pseudo is Projector augmented-wave + core cor, Zval =  3.0
     Generated using "atomic" code by A. Dal Corso  v.5.1.2
     Shape of augmentation charge: PSQ
     Using radial grid of 1059 points,  4 beta functions with: 
                l(1) =   0
                l(2) =   0
                l(3) =   1
                l(4) =   1
     Q(r) pseudized with 0 coefficients 


     PseudoPot. # 2 for N  read from file:
     /home/sf05/q-e-qe-6.7MaX-Release/pseudo/N.pbe-n-kjpaw_psl.1.0.0.UPF
     MD5 check sum: e0e4e94a9c4025c5b51bd7d8793849bd
     Pseudo is Projector augmented-wave + core cor, Zval =  5.0
     Generated using "atomic" code by A. Dal Corso  v.5.1.2
     Shape of augmentation charge: PSQ
     Using radial grid of 1085 points,  4 beta functions with: 
                l(1) =   0
                l(2) =   0
                l(3) =   1
                l(4) =   1
     Q(r) pseudized with 0 coefficients 


     PseudoPot. # 3 for Cr read from file:
     /home/sf05/q-e-qe-6.7MaX-Release/pseudo/Cr.pbe-spn-kjpaw_psl.1.0.0.UPF
     MD5 check sum: 198f1a2427a48552563eee314eba32ba
     Pseudo is Projector augmented-wave + core cor, Zval = 14.0
     Generated using &quot;atomic&quot; code by A. Dal Corso  v.6.3
     Shape of augmentation charge: PSQ
     Using radial grid of 1183 points,  6 beta functions with: 
                l(1) =   0
                l(2) =   0
                l(3) =   1
                l(4) =   1
                l(5) =   2
                l(6) =   2
     Q(r) pseudized with 0 coefficients 


     PseudoPot. # 4 for Cr read from file:
     /home/sf05/q-e-qe-6.7MaX-Release/pseudo/Cr.pbe-spn-kjpaw_psl.1.0.0.UPF
     MD5 check sum: 198f1a2427a48552563eee314eba32ba
     Pseudo is Projector augmented-wave + core cor, Zval = 14.0
     Generated using &quot;atomic&quot; code by A. Dal Corso  v.6.3
     Shape of augmentation charge: PSQ
     Using radial grid of 1183 points,  6 beta functions with: 
                l(1) =   0
                l(2) =   0
                l(3) =   1
                l(4) =   1
                l(5) =   2
                l(6) =   2
     Q(r) pseudized with 0 coefficients 


     atomic species   valence    mass     pseudopotential
        B              3.00    10.81100     B ( 1.00)
        N              5.00    14.00674     N ( 1.00)
        Cr1           14.00    51.99610     Cr( 1.00)
        Cr2           14.00    51.99610     Cr( 1.00)

     Starting magnetic structure 
     atomic species   magnetization
        B            0.000
        N            0.000
        Cr1          1.000
        Cr2          1.000

     No symmetry found



   Cartesian axes

     site n.     atom                  positions (alat units)
         1           B   tau(   1) = (  -0.1250000   0.2165064   0.8985623  )
         2           B   tau(   2) = (   0.3750000   0.6495191   0.8985623  )
         3           B   tau(   3) = (   0.2500000   0.0000000   0.8985623  )
         4           B   tau(   4) = (   0.7500000   0.0000000   0.8985623  )
         5           B   tau(   5) = (   0.1250000   0.2165064   0.8985623  )
         6           B   tau(   6) = (  -0.3750000   0.6495191   0.8985623  )
         7           N   tau(   7) = (   0.7500005   0.2886748   0.8985623  )
         8           N   tau(   8) = (   0.3750005   0.5051812   0.8985623  )
         9           N   tau(   9) = (   0.3750005   0.0721685   0.8985623  )
        10           N   tau(  10) = (   0.6250005   0.0721685   0.8985623  )
        11           N   tau(  11) = (   0.2500005   0.2886748   0.8985623  )
        12           N   tau(  12) = (   0.6250005   0.5051812   0.8985623  )
        13           N   tau(  13) = (   0.0000005   0.2886748   0.8985623  )
        14           N   tau(  14) = (   0.2500005   0.7216875   0.8985623  )
        15           N   tau(  15) = (  -0.2499995   0.7216875   0.8985623  )
        16           B   tau(  16) = (   0.0000000   0.4330127   0.8985623  )
        17           B   tau(  17) = (   0.1250000   0.6495191   0.8985623  )
        18           B   tau(  18) = (  -0.1250000   0.6495191   0.8985623  )
        19           B   tau(  19) = (   0.3750000   0.2165064   0.8985623  )
        20           B   tau(  20) = (   0.6250000   0.2165064   0.8985623  )
        21           B   tau(  21) = (   0.5000000   0.4330127   0.8985623  )
        22           N   tau(  22) = (   0.5000005   0.2886748   0.8985623  )
        23           B   tau(  23) = (  -0.2500000   0.4330127   0.8985623  )
        24           B   tau(  24) = (   0.2500000   0.4330127   0.8985623  )
        25           B   tau(  25) = (   0.5000000   0.0000000   0.8985623  )
        26           N   tau(  26) = (  -0.1249995   0.5051812   0.8985623  )
        27           N   tau(  27) = (   0.1250005   0.5051812   0.8985623  )
        28           N   tau(  28) = (   0.0000005   0.7216875   0.8985623  )
        29           N   tau(  29) = (   0.5000005   0.7216875   0.8985623  )
        30           N   tau(  30) = (   0.1250005   0.0721685   0.8985623  )
        31           N   tau(  31) = (   0.8750005   0.0721685   0.8985623  )
        32           B   tau(  32) = (   0.0000000   0.0000000   0.8985623  )
        33           Cr1 tau(  33) = (   0.5100000   0.0866025   1.2040735  )
        34           Cr2 tau(  34) = (  -0.0100000   0.0866025   1.2040735  )

     number of k points=    15  Gaussian smearing, width (Ry)=  0.0000
                       cart. coord. in units 2pi/alat
        k(    1) = (   0.1666667   0.2886751   0.0000000), wk =   0.0740741
        k(    2) = (   0.1666667  -0.4811252   0.0000000), wk =   0.0740741
        k(    3) = (   0.1666667  -0.0962250   0.0000000), wk =   0.0740741
        k(    4) = (  -0.5000000  -0.8660254   0.0000000), wk =   0.0370370
        k(    5) = (  -0.1666667   0.2886751   0.0000000), wk =   0.0740741
        k(    6) = (   0.3333333   0.0000000   0.0000000), wk =   0.0740741
        k(    7) = (  -0.1666667  -0.4811252   0.0000000), wk =   0.0740741
        k(    8) = (   0.5000000  -0.0962250   0.0000000), wk =   0.0740741
        k(    9) = (  -0.3333333  -0.3849002   0.0000000), wk =   0.0740741
        k(   10) = (   0.5000000   0.0962250   0.0000000), wk =   0.0740741
        k(   11) = (  -0.3333333   0.3849002   0.0000000), wk =   0.0740741
        k(   12) = (  -0.1666667  -0.0962250   0.0000000), wk =   0.0740741
        k(   13) = (  -0.0000000  -0.1924501   0.0000000), wk =   0.0740741
        k(   14) = (   0.5000000  -0.8660254   0.0000000), wk =   0.0370370
        k(   15) = (  -1.0000000   0.0000000   0.0000000), wk =   0.0370370

     Dense  grid:  1741401 G-vectors     FFT dimensions: ( 135, 135, 240)

     Smooth grid:   474235 G-vectors     FFT dimensions: (  90,  90, 160)

     Estimated max dynamical RAM per process >     218.62 MB

     Estimated total dynamical RAM >      10.25 GB
     Generating pointlists ...
     new r_m :   0.0595 (alat units)  1.1269 (a.u.) for type    1
     new r_m :   0.0595 (alat units)  1.1269 (a.u.) for type    2
     new r_m :   0.1311 (alat units)  2.4805 (a.u.) for type    3
     new r_m :   0.1311 (alat units)  2.4805 (a.u.) for type    4

     Initial potential from superposition of free atoms

     starting charge  155.99382, renormalised to  156.00000

     negative rho (up, down):  6.497E-03 4.655E-04
     Starting wfcs are  148 randomized atomic wfcs
     Checking if some PAW data can be deallocated... 

     total cpu time spent up to now is       20.0 secs

     Self-consistent Calculation

     iteration #  1     ecut=    48.00 Ry     beta= 0.50
     Davidson diagonalization with overlap
     ethr =  1.00E-02,  avg # of iterations =  2.8

     negative rho (up, down):  4.683E-03 2.932E-03

     total cpu time spent up to now is       59.7 secs

     total energy              =   -1130.76698307 Ry
     estimated scf accuracy    <      11.37260428 Ry

     total magnetization       =    12.00 Bohr mag/cell
     absolute magnetization    =    12.16 Bohr mag/cell

     iteration #  2     ecut=    48.00 Ry     beta= 0.50
     Davidson diagonalization with overlap
     ethr =  7.29E-03,  avg # of iterations =  2.8

     negative rho (up, down):  6.982E-03 1.076E-02

     total cpu time spent up to now is       96.7 secs

     total energy              =   -1133.11372909 Ry
     estimated scf accuracy    <       3.12751929 Ry

     total magnetization       =    12.00 Bohr mag/cell
     absolute magnetization    =    12.00 Bohr mag/cell

     iteration #  3     ecut=    48.00 Ry     beta= 0.50
     Davidson diagonalization with overlap
     ethr =  2.00E-03,  avg # of iterations =  6.5

     negative rho (up, down):  3.436E-03 6.057E-03

     total cpu time spent up to now is      133.1 secs

     total energy              =   -1133.63938120 Ry
     estimated scf accuracy    <       0.61729801 Ry

     total magnetization       =    12.00 Bohr mag/cell
     absolute magnetization    =    12.05 Bohr mag/cell

     iteration #  4     ecut=    48.00 Ry     beta= 0.50
     Davidson diagonalization with overlap
     ethr =  3.96E-04,  avg # of iterations =  7.9

     negative rho (up, down):  6.875E-03 1.420E-02

     total cpu time spent up to now is      170.5 secs

     total energy              =   -1133.79365151 Ry
     estimated scf accuracy    <       0.26299632 Ry

     total magnetization       =    12.00 Bohr mag/cell
     absolute magnetization    =    12.01 Bohr mag/cell

     iteration #  5     ecut=    48.00 Ry     beta= 0.50
     Davidson diagonalization with overlap
     ethr =  1.69E-04,  avg # of iterations =  8.4

     negative rho (up, down):  4.468E-03 9.862E-03

     total cpu time spent up to now is      208.0 secs

     total energy              =   -1133.80787029 Ry
     estimated scf accuracy    <       0.01716866 Ry

     total magnetization       =    12.00 Bohr mag/cell
     absolute magnetization    =    12.00 Bohr mag/cell

     iteration #  6     ecut=    48.00 Ry     beta= 0.50
     Davidson diagonalization with overlap
     c_bands:  2 eigenvalues not converged
     c_bands:  3 eigenvalues not converged
     c_bands:  3 eigenvalues not converged
     c_bands:  3 eigenvalues not converged
     c_bands:  4 eigenvalues not converged
     c_bands:  2 eigenvalues not converged
     c_bands:  3 eigenvalues not converged
     ethr =  1.10E-05,  avg # of iterations = 14.9

     negative rho (up, down):  3.327E-03 7.794E-03

     total cpu time spent up to now is      266.6 secs

     total energy              =   -1133.81047865 Ry
     estimated scf accuracy    <       0.00428165 Ry

     total magnetization       =    12.00 Bohr mag/cell
     absolute magnetization    =    12.01 Bohr mag/cell

     iteration #  7     ecut=    48.00 Ry     beta= 0.50
     Davidson diagonalization with overlap
     ethr =  2.74E-06,  avg # of iterations = 10.2

     negative rho (up, down):  3.002E-03 7.522E-03

     total cpu time spent up to now is      310.2 secs

     total energy              =   -1133.81137813 Ry
     estimated scf accuracy    <       0.00034540 Ry

     total magnetization       =    12.00 Bohr mag/cell
     absolute magnetization    =    12.00 Bohr mag/cell

     iteration #  8     ecut=    48.00 Ry     beta= 0.50
     Davidson diagonalization with overlap
     ethr =  2.21E-07,  avg # of iterations =  4.7

     negative rho (up, down):  2.873E-03 7.332E-03

     total cpu time spent up to now is      345.5 secs

     total energy              =   -1133.81146532 Ry
     estimated scf accuracy    <       0.00006334 Ry

     total magnetization       =    12.00 Bohr mag/cell
     absolute magnetization    =    12.00 Bohr mag/cell

     iteration #  9     ecut=    48.00 Ry     beta= 0.50
     Davidson diagonalization with overlap
     ethr =  4.06E-08,  avg # of iterations =  2.4

     negative rho (up, down):  2.836E-03 7.297E-03

     total cpu time spent up to now is      381.6 secs

     total energy              =   -1133.81152680 Ry
     estimated scf accuracy    <       0.00000618 Ry

     total magnetization       =    12.00 Bohr mag/cell
     absolute magnetization    =    12.00 Bohr mag/cell

     iteration # 10     ecut=    48.00 Ry     beta= 0.50
     Davidson diagonalization with overlap
     ethr =  3.96E-09,  avg # of iterations =  3.9

     negative rho (up, down):  2.825E-03 7.295E-03

     total cpu time spent up to now is      416.4 secs

     total energy              =   -1133.81154363 Ry
     estimated scf accuracy    <       0.00000275 Ry

     total magnetization       =    12.00 Bohr mag/cell
     absolute magnetization    =    12.00 Bohr mag/cell

     iteration # 11     ecut=    48.00 Ry     beta= 0.50
     Davidson diagonalization with overlap
     ethr =  1.76E-09,  avg # of iterations =  2.1

     negative rho (up, down):  2.821E-03 7.297E-03

     total cpu time spent up to now is      452.3 secs

     total energy              =   -1133.81156008 Ry
     estimated scf accuracy    <       0.00000027 Ry

     total magnetization       =    12.00 Bohr mag/cell
     absolute magnetization    =    12.00 Bohr mag/cell

     iteration # 12     ecut=    48.00 Ry     beta= 0.50
     Davidson diagonalization with overlap
     ethr =  1.73E-10,  avg # of iterations =  4.7

     negative rho (up, down):  2.819E-03 7.301E-03
 
     Magnetic moment per site:
     atom:    1    charge:    0.8804    magn:    0.0003    constr:    0.0000
     atom:    2    charge:    0.8803    magn:    0.0002    constr:    0.0000
     atom:    3    charge:    0.8804    magn:    0.0014    constr:    0.0000
     atom:    4    charge:    0.8804    magn:    0.0016    constr:    0.0000
     atom:    5    charge:    0.8804    magn:    0.0002    constr:    0.0000
     atom:    6    charge:    0.8803    magn:    0.0002    constr:    0.0000
     atom:    7    charge:    2.8609    magn:    0.0018    constr:    0.0000
     atom:    8    charge:    2.8609    magn:    0.0002    constr:    0.0000
     atom:    9    charge:    2.8606    magn:    0.0081    constr:    0.0000
     atom:   10    charge:    2.8606    magn:    0.0093    constr:    0.0000
     atom:   11    charge:    2.8609    magn:    0.0013    constr:    0.0000
     atom:   12    charge:    2.8609    magn:    0.0002    constr:    0.0000
     atom:   13    charge:    2.8597    magn:    0.0039    constr:    0.0000
     atom:   14    charge:    2.8598    magn:    0.0012    constr:    0.0000
     atom:   15    charge:    2.8598    magn:    0.0010    constr:    0.0000
     atom:   16    charge:    0.8800    magn:    0.0004    constr:    0.0000
     atom:   17    charge:    0.8800    magn:    0.0002    constr:    0.0000
     atom:   18    charge:    0.8800    magn:    0.0002    constr:    0.0000
     atom:   19    charge:    0.8798    magn:    0.0002    constr:    0.0000
     atom:   20    charge:    0.8798    magn:    0.0003    constr:    0.0000
     atom:   21    charge:    0.8798    magn:    0.0004    constr:    0.0000
     atom:   22    charge:    2.8610    magn:    0.0039    constr:    0.0000
     atom:   23    charge:    0.8799    magn:    0.0001    constr:    0.0000
     atom:   24    charge:    0.8799    magn:    0.0001    constr:    0.0000
     atom:   25    charge:    0.8805    magn:    0.0003    constr:    0.0000
     atom:   26    charge:    2.8598    magn:    0.0002    constr:    0.0000
     atom:   27    charge:    2.8598    magn:    0.0002    constr:    0.0000
     atom:   28    charge:    2.8596    magn:    0.0034    constr:    0.0000
     atom:   29    charge:    2.8594    magn:    0.0034    constr:    0.0000
     atom:   30    charge:    2.8593    magn:    0.0081    constr:    0.0000
     atom:   31    charge:    2.8593    magn:    0.0093    constr:    0.0000
     atom:   32    charge:    0.8807    magn:    0.0003    constr:    0.0000
     atom:   33    charge:   12.8589    magn:    4.8467    constr:    0.0000
     atom:   34    charge:   12.8590    magn:    4.8468    constr:    0.0000

     total cpu time spent up to now is      488.4 secs

     End of self-consistent calculation

 ------ SPIN UP ------------


          k = 0.1667 0.2887 0.0000 ( 59267 PWs)   bands (ev):

   -72.4546 -72.4543 -43.9195 -43.9192 -43.9148 -43.9145 -43.9105 -43.9102
   -21.2687 -20.6827 -20.6769 -20.1255 -20.1187 -19.6092 -19.6042 -19.1210
   -18.7201 -18.7129 -18.4780 -18.4733 -18.2166 -18.1069 -18.0989 -17.8714
   -12.5060 -12.2266 -12.2237 -11.8415 -11.8390 -11.6795 -11.2137 -11.2101
   -10.4127 -10.3895 -10.1387 -10.1360  -9.6108  -9.6090  -8.8572  -8.8488
    -8.8443  -8.7873  -8.7825  -8.6176  -8.2180  -8.0644  -8.0476  -7.8507
    -7.8480  -7.4604  -7.4583  -7.3134  -7.2703  -7.2295  -7.2275  -6.9806
    -6.9773  -6.5792  -6.5683  -6.1751  -6.1740  -5.8930  -5.4398  -5.3147
    -5.2984  -5.2214  -4.9411  -4.9160  -4.5270  -4.3775  -4.3622  -4.0009
    -2.2603  -1.6337  -1.4206  -1.4060  -1.3746  -1.3691  -1.3663  -1.3488
    -1.3389  -1.3130  -1.2898  -1.2583   0.6583   0.7673   0.9802   1.1807
     1.2293   1.3906   1.4844   1.5504   1.6010   1.6866

          k = 0.1667-0.4811 0.0000 ( 59291 PWs)   bands (ev):

   -72.4546 -72.4543 -43.9195 -43.9192 -43.9148 -43.9145 -43.9105 -43.9102
   -21.1388 -20.9330 -20.7446 -20.1825 -19.8261 -19.4877 -19.3388 -19.1966
   -19.0356 -18.8000 -18.6654 -18.5646 -18.1715 -18.1092 -17.9439 -17.7457
   -12.3704 -12.1351 -12.0650 -11.9275 -11.7011 -11.6794 -11.5739 -10.9626
   -10.9120 -10.6455 -10.5438  -9.8818  -9.7147  -9.3572  -9.1320  -8.6893
    -8.6440  -8.5753  -8.4097  -8.3871  -8.1827  -8.1473  -8.0844  -8.0709
    -7.7103  -7.6444  -7.5158  -7.4949  -7.3785  -7.1919  -7.0886  -6.8826
    -6.6433  -6.4097  -6.1980  -6.1789  -5.9965  -5.9504  -5.8050  -5.7647
    -5.4725  -5.4195  -5.2344  -5.0612  -4.4660  -4.3675  -4.1114  -3.7886
    -2.2510  -1.6401  -1.4181  -1.4059  -1.3728  -1.3719  -1.3676  -1.3483
    -1.3387  -1.3130  -1.2897  -1.2582   0.6345   0.6453   1.0190   1.0330
     1.1551   1.2771   1.4134   1.7744   1.8219   1.8833

          k = 0.1667-0.0962 0.0000 ( 59226 PWs)   bands (ev):

   -72.4546 -72.4543 -43.9195 -43.9192 -43.9148 -43.9145 -43.9105 -43.9102
   -21.3350 -20.5579 -20.3656 -20.3614 -20.0097 -20.0031 -19.8267 -18.7501
   -18.7458 -18.3948 -18.3898 -18.3795 -18.2888 -18.2845 -18.0974 -18.0937
   -12.5277 -12.5247 -12.4293 -11.6012 -11.5991 -11.4462 -11.4426 -10.9465
   -10.9458  -9.9497  -9.9482  -9.6974  -9.3977  -9.3925  -9.2507  -9.2494
    -9.0628  -9.0618  -8.9451  -8.3443  -8.3431  -7.9225  -7.9201  -7.9044
    -7.8667  -7.7914  -7.6253  -7.6105  -7.1451  -7.1248  -6.9806  -6.9090
    -6.9066  -6.8720  -6.5515  -6.5503  -6.2786  -5.3611  -5.3506  -5.1645
    -5.0865  -4.8292  -4.8153  -4.7786  -4.6416  -4.6217  -4.3669  -4.3599
    -2.2696  -1.6271  -1.4231  -1.4062  -1.3783  -1.3692  -1.3619  -1.3492
    -1.3391  -1.3129  -1.2899  -1.2583   0.6767   0.8847   0.9479   1.2152
     1.2926   1.3188   1.3688   1.5608   1.6007   1.6722

          k =-0.5000-0.8660 0.0000 ( 59292 PWs)   bands (ev):

   -72.4546 -72.4543 -43.9195 -43.9192 -43.9149 -43.9145 -43.9105 -43.9102
   -21.0727 -21.0673 -20.4892 -20.4871 -19.4443 -19.4402 -19.4380 -19.4345
   -19.0142 -19.0100 -18.3460 -18.3419 -18.3392 -18.3356 -17.8135 -17.8115
   -12.0905 -12.0875 -12.0851 -12.0822 -11.8981 -11.8957 -11.3513 -11.3481
   -10.2558 -10.2536 -10.1530 -10.1524 -10.1515 -10.1508  -8.5954  -8.5844
    -8.5687  -8.5670  -8.5648  -8.5629  -7.8844  -7.8825  -7.8817  -7.8809
    -7.8424  -7.8417  -7.7921  -7.7876  -7.5114  -7.5071  -6.6322  -6.6299
    -6.3701  -6.3595  -6.3272  -6.3214  -6.2112  -6.2083  -5.7294  -5.7225
    -5.5669  -5.5628  -4.7430  -4.7332  -4.7285  -4.7167  -3.9009  -3.8962
    -2.0530  -1.9074  -1.3973  -1.3843  -1.3772  -1.3686  -1.3633  -1.3545
    -1.3399  -1.3363  -1.3337  -1.3123   0.9648   0.9986   1.1052   1.1554
     1.3652   1.4107   1.5070   1.5805   1.6305   1.6406

          k =-0.1667 0.2887 0.0000 ( 59267 PWs)   bands (ev):

   -72.4546 -72.4543 -43.9195 -43.9192 -43.9148 -43.9145 -43.9105 -43.9102
   -21.2687 -20.6827 -20.6769 -20.1255 -20.1187 -19.6092 -19.6042 -19.1211
   -18.7201 -18.7129 -18.4781 -18.4733 -18.2166 -18.1069 -18.0989 -17.8714
   -12.5060 -12.2266 -12.2237 -11.8415 -11.8390 -11.6795 -11.2137 -11.2101
   -10.4127 -10.3895 -10.1387 -10.1360  -9.6108  -9.6090  -8.8572  -8.8487
    -8.8443  -8.7874  -8.7825  -8.6176  -8.2181  -8.0644  -8.0476  -7.8507
    -7.8479  -7.4604  -7.4583  -7.3134  -7.2703  -7.2295  -7.2275  -6.9806
    -6.9774  -6.5792  -6.5683  -6.1751  -6.1739  -5.8930  -5.4399  -5.3148
    -5.2984  -5.2213  -4.9411  -4.9160  -4.5270  -4.3775  -4.3621  -4.0008
    -2.2603  -1.6337  -1.4206  -1.4060  -1.3746  -1.3690  -1.3663  -1.3488
    -1.3389  -1.3130  -1.2898  -1.2583   0.6583   0.7673   0.9802   1.1806
     1.2293   1.3906   1.4844   1.5504   1.6011   1.6867

          k = 0.3333 0.0000 0.0000 ( 59267 PWs)   bands (ev):

   -72.4546 -72.4543 -43.9195 -43.9192 -43.9148 -43.9145 -43.9105 -43.9102
   -21.2682 -20.7094 -20.6499 -20.1331 -20.1093 -19.6371 -19.5785 -19.1235
   -18.7379 -18.6892 -18.4883 -18.4646 -18.2122 -18.1320 -18.0814 -17.8703
   -12.5040 -12.2352 -12.2164 -11.8528 -11.8308 -11.6780 -11.2309 -11.1918
   -10.4132 -10.3878 -10.1544 -10.1221  -9.6168  -9.6011  -8.8585  -8.8517
    -8.8350  -8.8119  -8.7609  -8.6183  -8.2202  -8.1262  -7.9850  -7.8508
    -7.8454  -7.4668  -7.4509  -7.3216  -7.2573  -7.2397  -7.2169  -6.9900
    -6.9701  -6.6420  -6.5131  -6.1782  -6.1699  -5.8996  -5.4397  -5.3382
    -5.2641  -5.2216  -4.9544  -4.9042  -4.5192  -4.4124  -4.3399  -3.9997
    -2.1688  -1.7674  -1.4103  -1.3948  -1.3761  -1.3660  -1.3565  -1.3520
    -1.3417  -1.3263  -1.3229  -1.3024   0.9443   1.0687   1.1136   1.1196
     1.2792   1.3947   1.4181   1.4884   1.5233   1.5836

          k =-0.1667-0.4811 0.0000 ( 59291 PWs)   bands (ev):

   -72.4546 -72.4543 -43.9195 -43.9192 -43.9148 -43.9145 -43.9105 -43.9102
   -21.1388 -20.9330 -20.7446 -20.1825 -19.8261 -19.4877 -19.3388 -19.1966
   -19.0357 -18.8000 -18.6654 -18.5646 -18.1715 -18.1092 -17.9439 -17.7457
   -12.3704 -12.1350 -12.0650 -11.9275 -11.7011 -11.6794 -11.5740 -10.9626
   -10.9121 -10.6455 -10.5438  -9.8817  -9.7147  -9.3572  -9.1321  -8.6893
    -8.6440  -8.5753  -8.4096  -8.3871  -8.1826  -8.1473  -8.0844  -8.0710
    -7.7103  -7.6445  -7.5157  -7.4949  -7.3785  -7.1919  -7.0885  -6.8826
    -6.6433  -6.4098  -6.1980  -6.1789  -5.9965  -5.9503  -5.8050  -5.7647
    -5.4726  -5.4195  -5.2344  -5.0612  -4.4660  -4.3675  -4.1114  -3.7886
    -2.2510  -1.6401  -1.4181  -1.4059  -1.3727  -1.3719  -1.3676  -1.3483
    -1.3387  -1.3130  -1.2897  -1.2582   0.6345   0.6453   1.0190   1.0330
     1.1551   1.2771   1.4134   1.7744   1.8220   1.8832

          k = 0.5000-0.0962 0.0000 ( 59291 PWs)   bands (ev):

   -72.4546 -72.4543 -43.9195 -43.9192 -43.9148 -43.9145 -43.9105 -43.9102
   -21.1355 -20.9419 -20.7389 -20.1807 -19.8256 -19.4903 -19.3454 -19.1905
   -19.0375 -18.8016 -18.6525 -18.5715 -18.1587 -18.1280 -17.9402 -17.7452
   -12.3674 -12.1362 -12.0632 -11.9326 -11.7154 -11.6639 -11.5756 -10.9641
   -10.9086 -10.6428 -10.5471  -9.8798  -9.7149  -9.3579  -9.1314  -8.6769
    -8.6449  -8.5720  -8.4246  -8.4133  -8.1805  -8.1240  -8.0985  -8.0579
    -7.7055  -7.6450  -7.5147  -7.4962  -7.3728  -7.1936  -7.0898  -6.8810
    -6.6441  -6.4174  -6.2195  -6.1781  -5.9778  -5.9500  -5.8040  -5.7700
    -5.4737  -5.4205  -5.2063  -5.0775  -4.4421  -4.4005  -4.1053  -3.7881
    -2.0534  -1.9068  -1.3976  -1.3845  -1.3784  -1.3681  -1.3631  -1.3544
    -1.3399  -1.3363  -1.3336  -1.3123   0.9102   0.9905   1.0954   1.1516
     1.3029   1.3695   1.4714   1.5348   1.5992   1.7205

          k =-0.3333-0.3849 0.0000 ( 59291 PWs)   bands (ev):

   -72.4546 -72.4543 -43.9195 -43.9192 -43.9148 -43.9145 -43.9105 -43.9102
   -21.1366 -20.9387 -20.7411 -20.1803 -19.8282 -19.4880 -19.3394 -19.1948
   -19.0409 -18.7990 -18.6541 -18.5712 -18.1612 -18.1246 -17.9403 -17.7454
   -12.3696 -12.1322 -12.0665 -11.9298 -11.7031 -11.6780 -11.5751 -10.9637
   -10.9093 -10.6423 -10.5471  -9.8796  -9.7149  -9.3584  -9.1329  -8.6810
    -8.6432  -8.5743  -8.4134  -8.4082  -8.1818  -8.1326  -8.0843  -8.0741
    -7.7059  -7.6435  -7.5216  -7.4894  -7.3715  -7.1935  -7.0906  -6.8892
    -6.6416  -6.4102  -6.2014  -6.1810  -5.9907  -5.9486  -5.8042  -5.7802
    -5.4736  -5.4135  -5.2069  -5.0793  -4.4446  -4.3971  -4.1052  -3.7884
    -2.1543  -1.7800  -1.4077  -1.3943  -1.3739  -1.3701  -1.3565  -1.3522
    -1.3417  -1.3264  -1.3226  -1.3023   0.7957   1.0086   1.0462   1.0913
     1.2100   1.2352   1.4001   1.5635   1.6666   1.8514

          k = 0.5000 0.0962 0.0000 ( 59291 PWs)   bands (ev):

   -72.4546 -72.4543 -43.9195 -43.9192 -43.9148 -43.9145 -43.9105 -43.9102
   -21.1355 -20.9419 -20.7389 -20.1807 -19.8256 -19.4903 -19.3454 -19.1905
   -19.0375 -18.8016 -18.6525 -18.5715 -18.1587 -18.1280 -17.9402 -17.7452
   -12.3674 -12.1362 -12.0632 -11.9327 -11.7154 -11.6639 -11.5756 -10.9641
   -10.9086 -10.6428 -10.5471  -9.8799  -9.7149  -9.3579  -9.1314  -8.6769
    -8.6449  -8.5721  -8.4246  -8.4133  -8.1805  -8.1240  -8.0984  -8.0578
    -7.7056  -7.6449  -7.5148  -7.4963  -7.3728  -7.1937  -7.0898  -6.8810
    -6.6440  -6.4174  -6.2195  -6.1780  -5.9778  -5.9499  -5.8041  -5.7700
    -5.4737  -5.4205  -5.2063  -5.0775  -4.4421  -4.4005  -4.1053  -3.7881
    -2.0534  -1.9068  -1.3976  -1.3845  -1.3784  -1.3681  -1.3631  -1.3544
    -1.3399  -1.3363  -1.3336  -1.3123   0.9102   0.9905   1.0954   1.1516
     1.3028   1.3695   1.4714   1.5350   1.5992   1.7210

          k =-0.3333 0.3849 0.0000 ( 59291 PWs)   bands (ev):

   -72.4546 -72.4543 -43.9195 -43.9192 -43.9148 -43.9145 -43.9105 -43.9102
   -21.1366 -20.9387 -20.7411 -20.1803 -19.8282 -19.4880 -19.3394 -19.1948
   -19.0409 -18.7990 -18.6541 -18.5712 -18.1612 -18.1246 -17.9404 -17.7454
   -12.3695 -12.1322 -12.0665 -11.9298 -11.7031 -11.6781 -11.5751 -10.9637
   -10.9093 -10.6423 -10.5471  -9.8796  -9.7149  -9.3584  -9.1329  -8.6810
    -8.6432  -8.5742  -8.4135  -8.4082  -8.1818  -8.1326  -8.0843  -8.0741
    -7.7058  -7.6435  -7.5217  -7.4894  -7.3715  -7.1934  -7.0907  -6.8892
    -6.6416  -6.4102  -6.2014  -6.1811  -5.9907  -5.9487  -5.8041  -5.7802
    -5.4735  -5.4135  -5.2069  -5.0793  -4.4447  -4.3971  -4.1052  -3.7884
    -2.1543  -1.7800  -1.4077  -1.3943  -1.3739  -1.3701  -1.3565  -1.3522
    -1.3417  -1.3264  -1.3226  -1.3023   0.7957   1.0086   1.0462   1.0913
     1.2100   1.2352   1.4001   1.5635   1.6666   1.8519

          k =-0.1667-0.0962 0.0000 ( 59226 PWs)   bands (ev):

   -72.4546 -72.4543 -43.9195 -43.9192 -43.9148 -43.9145 -43.9105 -43.9102
   -21.3350 -20.5579 -20.3656 -20.3614 -20.0097 -20.0031 -19.8267 -18.7501
   -18.7458 -18.3948 -18.3898 -18.3795 -18.2888 -18.2845 -18.0974 -18.0937
   -12.5277 -12.5247 -12.4293 -11.6012 -11.5991 -11.4462 -11.4426 -10.9465
   -10.9457  -9.9497  -9.9482  -9.6974  -9.3977  -9.3925  -9.2507  -9.2494
    -9.0628  -9.0619  -8.9451  -8.3443  -8.3432  -7.9225  -7.9200  -7.9044
    -7.8667  -7.7914  -7.6253  -7.6105  -7.1451  -7.1248  -6.9806  -6.9090
    -6.9066  -6.8720  -6.5514  -6.5503  -6.2787  -5.3611  -5.3506  -5.1644
    -5.0866  -4.8292  -4.8153  -4.7786  -4.6416  -4.6217  -4.3669  -4.3600
    -2.2696  -1.6271  -1.4231  -1.4062  -1.3783  -1.3692  -1.3619  -1.3492
    -1.3391  -1.3129  -1.2899  -1.2583   0.6767   0.8847   0.9479   1.2152
     1.2926   1.3188   1.3688   1.5608   1.6008   1.6722

          k =-0.0000-0.1925 0.0000 ( 59226 PWs)   bands (ev):

   -72.4546 -72.4543 -43.9195 -43.9192 -43.9148 -43.9145 -43.9105 -43.9102
   -21.3352 -20.5522 -20.3757 -20.3613 -20.0083 -19.9960 -19.8309 -18.7516
   -18.7396 -18.4263 -18.3852 -18.3738 -18.2759 -18.2745 -18.1040 -18.0933
   -12.5360 -12.5172 -12.4285 -11.6051 -11.5951 -11.4536 -11.4337 -10.9496
   -10.9443  -9.9496  -9.9492  -9.6968  -9.3999  -9.3877  -9.2519  -9.2507
    -9.0637  -9.0608  -8.9457  -8.3439  -8.3436  -7.9232  -7.9181  -7.8815
    -7.8652  -7.7934  -7.6748  -7.5984  -7.1455  -7.0949  -6.9791  -6.9109
    -6.9062  -6.8873  -6.5530  -6.5478  -6.2793  -5.3736  -5.3262  -5.1647
    -5.0864  -4.8818  -4.8045  -4.7759  -4.6167  -4.6077  -4.3864  -4.3516
    -2.3016  -1.5820  -1.4269  -1.4104  -1.3778  -1.3733  -1.3627  -1.3515
    -1.3344  -1.3094  -1.2842  -1.2087   0.4987   0.8115   0.9175   1.1835
     1.2475   1.3603   1.3956   1.5883   1.6490   1.7466

          k = 0.5000-0.8660 0.0000 ( 59292 PWs)   bands (ev):

   -72.4546 -72.4543 -43.9195 -43.9192 -43.9149 -43.9145 -43.9105 -43.9102
   -21.0728 -21.0672 -20.4892 -20.4871 -19.4443 -19.4402 -19.4380 -19.4345
   -19.0143 -19.0099 -18.3460 -18.3420 -18.3392 -18.3355 -17.8135 -17.8115
   -12.0905 -12.0876 -12.0851 -12.0821 -11.8980 -11.8957 -11.3513 -11.3480
   -10.2558 -10.2536 -10.1530 -10.1524 -10.1515 -10.1508  -8.5954  -8.5843
    -8.5688  -8.5671  -8.5647  -8.5628  -7.8844  -7.8825  -7.8817  -7.8809
    -7.8424  -7.8418  -7.7921  -7.7876  -7.5114  -7.5071  -6.6321  -6.6299
    -6.3701  -6.3595  -6.3272  -6.3215  -6.2112  -6.2081  -5.7294  -5.7226
    -5.5670  -5.5629  -4.7430  -4.7332  -4.7286  -4.7166  -3.9009  -3.8962
    -2.0530  -1.9074  -1.3973  -1.3843  -1.3772  -1.3685  -1.3633  -1.3545
    -1.3399  -1.3363  -1.3337  -1.3123   0.9648   0.9986   1.1052   1.1554
     1.3652   1.4108   1.5072   1.5806   1.6305   1.6407

          k =-1.0000 0.0000 0.0000 ( 59292 PWs)   bands (ev):

   -72.4546 -72.4543 -43.9195 -43.9192 -43.9149 -43.9145 -43.9105 -43.9102
   -21.0983 -21.0385 -20.4978 -20.4838 -19.4526 -19.4460 -19.4348 -19.4165
   -19.0371 -18.9890 -18.4064 -18.3371 -18.3215 -18.2983 -17.8189 -17.8086
   -12.1379 -12.0873 -12.0666 -12.0511 -11.9025 -11.8905 -11.3715 -11.3285
   -10.2641 -10.2634 -10.1541 -10.1514 -10.1439 -10.1437  -8.6540  -8.6020
    -8.5722  -8.5504  -8.5353  -8.5105  -7.9016  -7.8895  -7.8814  -7.8806
    -7.8469  -7.8327  -7.8186  -7.7647  -7.5369  -7.4844  -6.6323  -6.6259
    -6.3983  -6.3389  -6.3322  -6.2850  -6.2316  -6.1913  -5.7682  -5.6931
    -5.5893  -5.5410  -4.8474  -4.7192  -4.7004  -4.6576  -3.9136  -3.8875
    -2.2849  -1.5918  -1.4213  -1.4103  -1.3739  -1.3723  -1.3707  -1.3501
    -1.3336  -1.3094  -1.2841  -1.2090   0.4691   0.5812   1.0243   1.0612
     1.1148   1.5219   1.5946   1.6025   1.6169   1.8730

 ------ SPIN DOWN ----------


          k = 0.1667 0.2887 0.0000 ( 59267 PWs)   bands (ev):

   -68.0823 -68.0819 -39.5858 -39.5855 -39.5750 -39.5746 -39.5725 -39.5721
   -21.2613 -20.6752 -20.6702 -20.1182 -20.1117 -19.6019 -19.5975 -19.1138
   -18.7112 -18.7056 -18.4707 -18.4663 -18.2080 -18.0995 -18.0935 -17.8640
   -12.5009 -12.2214 -12.2190 -11.8370 -11.8348 -11.6753 -11.2085 -11.2053
   -10.4075 -10.3843 -10.1334 -10.1310  -9.6057  -9.6043  -8.8429  -8.8386
    -8.8301  -8.7826  -8.7783  -8.6130  -8.2137  -8.0368  -8.0261  -7.8459
    -7.8436  -7.4542  -7.4527  -7.2820  -7.2549  -7.2249  -7.2231  -6.9760
    -6.9729  -6.5563  -6.5483  -6.1702  -6.1693  -5.8703  -5.4344  -5.2869
    -5.2772  -5.2165  -4.9167  -4.8998  -4.5034  -4.3565  -4.3473  -3.9812
    -0.2257   0.6524   1.0542   1.1954   1.3518   1.4006   1.4230   1.5360
     1.5551   1.8274   1.8869   2.1155   2.2046   2.2754   2.2977   2.4189
     2.4440   2.5213   2.5287   2.6096   2.6322   2.6610

          k = 0.1667-0.4811 0.0000 ( 59291 PWs)   bands (ev):

   -68.0823 -68.0819 -39.5858 -39.5855 -39.5750 -39.5746 -39.5725 -39.5721
   -21.1307 -20.9271 -20.7373 -20.1751 -19.8190 -19.4807 -19.3317 -19.1890
   -19.0286 -18.7931 -18.6549 -18.5592 -18.1611 -18.1055 -17.9363 -17.7382
   -12.3652 -12.1300 -12.0607 -11.9230 -11.6973 -11.6745 -11.5693 -10.9577
   -10.9064 -10.6397 -10.5394  -9.8760  -9.7100  -9.3519  -9.1273  -8.6575
    -8.6392  -8.5694  -8.4054  -8.3708  -8.1780  -8.1207  -8.0797  -8.0667
    -7.7050  -7.6399  -7.5108  -7.4910  -7.3528  -7.1868  -7.0841  -6.8598
    -6.6376  -6.3881  -6.1762  -6.1742  -5.9727  -5.9447  -5.8000  -5.7444
    -5.4679  -5.3980  -5.2015  -5.0481  -4.4369  -4.3579  -4.0908  -3.7693
    -0.1842   0.6234   1.0076   1.1048   1.1400   1.2923   1.3365   1.7672
     1.8547   1.8743   2.0395   2.1083   2.2526   2.2905   2.3086   2.3660
     2.4502   2.4950   2.5208   2.5439   2.5499   2.6615

          k = 0.1667-0.0962 0.0000 ( 59226 PWs)   bands (ev):

   -68.0823 -68.0819 -39.5858 -39.5855 -39.5750 -39.5746 -39.5725 -39.5721
   -21.3278 -20.5496 -20.3587 -20.3554 -20.0013 -19.9963 -19.8208 -18.7415
   -18.7380 -18.3869 -18.3826 -18.3715 -18.2812 -18.2772 -18.0907 -18.0878
   -12.5224 -12.5201 -12.4245 -11.5965 -11.5947 -11.4413 -11.4380 -10.9416
   -10.9409  -9.9447  -9.9434  -9.6919  -9.3925  -9.3877  -9.2454  -9.2443
    -9.0581  -9.0573  -8.9190  -8.3386  -8.3377  -7.9178  -7.9156  -7.8741
    -7.8586  -7.7871  -7.6022  -7.5936  -7.1157  -7.1033  -6.9757  -6.9043
    -6.9025  -6.8565  -6.5468  -6.5457  -6.2740  -5.3340  -5.3272  -5.1594
    -5.0815  -4.8060  -4.7949  -4.7564  -4.6188  -4.6044  -4.3477  -4.3428
    -0.2632   0.6846   1.0624   1.1041   1.2522   1.4680   1.5023   1.5607
     1.8052   1.8890   1.9913   2.0100   2.0782   2.1744   2.3040   2.4118
     2.4378   2.4927   2.5319   2.5786   2.6296   2.6590

          k =-0.5000-0.8660 0.0000 ( 59292 PWs)   bands (ev):

   -68.0823 -68.0819 -39.5858 -39.5855 -39.5750 -39.5746 -39.5725 -39.5721
   -21.0650 -21.0602 -20.4824 -20.4805 -19.4364 -19.4329 -19.4303 -19.4273
   -19.0070 -19.0033 -18.3381 -18.3341 -18.3320 -18.3286 -17.8062 -17.8044
   -12.0851 -12.0826 -12.0803 -12.0777 -11.8937 -11.8916 -11.3462 -11.3432
   -10.2506 -10.2487 -10.1478 -10.1474 -10.1462 -10.1458  -8.5676  -8.5660
    -8.5622  -8.5598  -8.5584  -8.5559  -7.8792  -7.8780  -7.8768  -7.8765
    -7.8370  -7.8364  -7.7705  -7.7668  -7.5069  -7.5030  -6.6270  -6.6250
    -6.3362  -6.3291  -6.3097  -6.3052  -6.2061  -6.2033  -5.7084  -5.7032
    -5.5619  -5.5581  -4.7193  -4.7114  -4.7080  -4.6987  -3.8815  -3.8778
     0.0391   0.1631   1.0403   1.0470   1.4375   1.4600   1.4931   1.5128
     1.7936   1.7949   2.0694   2.0734   2.2281   2.2641   2.3743   2.3809
     2.4452   2.4486   2.5268   2.5391   2.6318   2.6734

          k =-0.1667 0.2887 0.0000 ( 59267 PWs)   bands (ev):

   -68.0823 -68.0819 -39.5858 -39.5855 -39.5750 -39.5746 -39.5725 -39.5721
   -21.2613 -20.6752 -20.6702 -20.1182 -20.1117 -19.6020 -19.5975 -19.1138
   -18.7112 -18.7055 -18.4707 -18.4663 -18.2080 -18.0995 -18.0935 -17.8640
   -12.5009 -12.2214 -12.2190 -11.8370 -11.8348 -11.6753 -11.2085 -11.2052
   -10.4075 -10.3843 -10.1335 -10.1310  -9.6057  -9.6042  -8.8429  -8.8386
    -8.8301  -8.7826  -8.7783  -8.6130  -8.2137  -8.0368  -8.0261  -7.8459
    -7.8435  -7.4543  -7.4527  -7.2820  -7.2549  -7.2249  -7.2230  -6.9761
    -6.9730  -6.5563  -6.5483  -6.1702  -6.1692  -5.8703  -5.4345  -5.2869
    -5.2773  -5.2164  -4.9167  -4.8998  -4.5035  -4.3565  -4.3473  -3.9812
    -0.2257   0.6524   1.0543   1.1953   1.3518   1.4006   1.4230   1.5360
     1.5550   1.8274   1.8868   2.1155   2.2046   2.2754   2.2978   2.4191
     2.4439   2.5217   2.5284   2.6097   2.6319   2.6608

          k = 0.3333 0.0000 0.0000 ( 59267 PWs)   bands (ev):

   -68.0823 -68.0819 -39.5858 -39.5855 -39.5750 -39.5746 -39.5725 -39.5721
   -21.2609 -20.6983 -20.6470 -20.1244 -20.1041 -19.6257 -19.5754 -19.1156
   -18.7266 -18.6860 -18.4790 -18.4591 -18.2047 -18.1203 -18.0782 -17.8632
   -12.4995 -12.2284 -12.2129 -11.8469 -11.8273 -11.6740 -11.2245 -11.1885
   -10.4078 -10.3831 -10.1466 -10.1191  -9.6111  -9.5975  -8.8458  -8.8382
    -8.8244  -8.8042  -8.7588  -8.6136  -8.2155  -8.0834  -7.9792  -7.8462
    -7.8413  -7.4596  -7.4468  -7.2886  -7.2453  -7.2339  -7.2137  -6.9839
    -6.9668  -6.6022  -6.5067  -6.1730  -6.1658  -5.8741  -5.4344  -5.3051
    -5.2528  -5.2167  -4.9272  -4.8903  -4.4986  -4.3820  -4.3294  -3.9804
    -0.1471   0.4129   1.0494   1.1837   1.3614   1.4613   1.4849   1.5381
     1.5866   1.7937   2.1022   2.1549   2.2558   2.2706   2.2771   2.4030
     2.4554   2.4909   2.5430   2.5661   2.5820   2.6388

          k =-0.1667-0.4811 0.0000 ( 59291 PWs)   bands (ev):

   -68.0823 -68.0819 -39.5858 -39.5855 -39.5750 -39.5746 -39.5725 -39.5721
   -21.1307 -20.9271 -20.7373 -20.1751 -19.8190 -19.4807 -19.3317 -19.1890
   -19.0286 -18.7931 -18.6550 -18.5592 -18.1611 -18.1055 -17.9363 -17.7382
   -12.3652 -12.1300 -12.0607 -11.9230 -11.6973 -11.6745 -11.5693 -10.9577
   -10.9064 -10.6397 -10.5394  -9.8760  -9.7100  -9.3520  -9.1273  -8.6575
    -8.6391  -8.5694  -8.4054  -8.3708  -8.1779  -8.1207  -8.0797  -8.0667
    -7.7050  -7.6399  -7.5107  -7.4909  -7.3528  -7.1868  -7.0841  -6.8598
    -6.6377  -6.3881  -6.1762  -6.1742  -5.9727  -5.9446  -5.8000  -5.7444
    -5.4679  -5.3980  -5.2015  -5.0481  -4.4369  -4.3579  -4.0908  -3.7693
    -0.1842   0.6234   1.0076   1.1048   1.1400   1.2924   1.3365   1.7672
     1.8547   1.8743   2.0395   2.1083   2.2526   2.2905   2.3085   2.3660
     2.4502   2.4949   2.5208   2.5440   2.5499   2.6616

          k = 0.5000-0.0962 0.0000 ( 59291 PWs)   bands (ev):

   -68.0823 -68.0819 -39.5858 -39.5855 -39.5750 -39.5746 -39.5725 -39.5721
   -21.1282 -20.9338 -20.7330 -20.1738 -19.8187 -19.4826 -19.3365 -19.1846
   -19.0299 -18.7942 -18.6457 -18.5643 -18.1512 -18.1195 -17.9337 -17.7378
   -12.3629 -12.1308 -12.0592 -11.9272 -11.7093 -11.6612 -11.5707 -10.9588
   -10.9037 -10.6376 -10.5420  -9.8745  -9.7101  -9.3526  -9.1268  -8.6509
    -8.6394  -8.5671  -8.4102  -8.3905  -8.1763  -8.1077  -8.0919  -8.0553
    -7.7012  -7.6403  -7.5100  -7.4920  -7.3493  -7.1880  -7.0851  -6.8590
    -6.6382  -6.3925  -6.1883  -6.1735  -5.9623  -5.9446  -5.7992  -5.7469
    -5.4688  -5.3987  -5.1855  -5.0575  -4.4213  -4.3785  -4.0877  -3.7690
     0.0306   0.1756   1.0050   1.1125   1.1406   1.2992   1.6059   1.7526
     1.7893   2.0457   2.0595   2.1528   2.2359   2.2888   2.3071   2.3859
     2.4423   2.4918   2.5243   2.5668   2.6142   2.6521

          k =-0.3333-0.3849 0.0000 ( 59291 PWs)   bands (ev):

   -68.0823 -68.0819 -39.5858 -39.5855 -39.5750 -39.5746 -39.5725 -39.5721
   -21.1291 -20.9314 -20.7347 -20.1735 -19.8206 -19.4809 -19.3321 -19.1878
   -19.0323 -18.7924 -18.6467 -18.5641 -18.1530 -18.1172 -17.9338 -17.7380
   -12.3645 -12.1277 -12.0618 -11.9251 -11.6988 -11.6733 -11.5702 -10.9585
   -10.9042 -10.6373 -10.5420  -9.8743  -9.7102  -9.3529  -9.1279  -8.6527
    -8.6384  -8.5687  -8.4070  -8.3836  -8.1774  -8.1127  -8.0796  -8.0691
    -7.7015  -7.6391  -7.5159  -7.4863  -7.3486  -7.1880  -7.0857  -6.8637
    -6.6364  -6.3884  -6.1789  -6.1747  -5.9696  -5.9434  -5.7994  -5.7528
    -5.4688  -5.3949  -5.1859  -5.0582  -4.4229  -4.3764  -4.0875  -3.7692
    -0.0840   0.3523   1.0142   1.0719   1.2003   1.2689   1.4798   1.7802
     1.9380   1.9745   2.0533   2.0602   2.1888   2.2910   2.3473   2.4230
     2.4532   2.4685   2.4805   2.5775   2.5992   2.6402

          k = 0.5000 0.0962 0.0000 ( 59291 PWs)   bands (ev):

   -68.0823 -68.0819 -39.5858 -39.5855 -39.5750 -39.5746 -39.5725 -39.5721
   -21.1282 -20.9338 -20.7330 -20.1738 -19.8187 -19.4826 -19.3366 -19.1846
   -19.0299 -18.7942 -18.6457 -18.5643 -18.1512 -18.1196 -17.9337 -17.7378
   -12.3629 -12.1308 -12.0592 -11.9272 -11.7093 -11.6612 -11.5707 -10.9587
   -10.9037 -10.6376 -10.5421  -9.8745  -9.7102  -9.3526  -9.1268  -8.6509
    -8.6394  -8.5671  -8.4102  -8.3905  -8.1763  -8.1077  -8.0919  -8.0553
    -7.7013  -7.6403  -7.5100  -7.4921  -7.3493  -7.1880  -7.0850  -6.8590
    -6.6381  -6.3925  -6.1882  -6.1734  -5.9623  -5.9445  -5.7993  -5.7470
    -5.4688  -5.3987  -5.1855  -5.0575  -4.4213  -4.3785  -4.0877  -3.7690
     0.0306   0.1756   1.0050   1.1125   1.1406   1.2991   1.6059   1.7525
     1.7893   2.0457   2.0594   2.1528   2.2359   2.2888   2.3071   2.3860
     2.4422   2.4918   2.5243   2.5666   2.6143   2.6515

          k =-0.3333 0.3849 0.0000 ( 59291 PWs)   bands (ev):

   -68.0823 -68.0819 -39.5858 -39.5855 -39.5750 -39.5746 -39.5725 -39.5721
   -21.1291 -20.9314 -20.7347 -20.1735 -19.8206 -19.4809 -19.3321 -19.1878
   -19.0323 -18.7924 -18.6467 -18.5641 -18.1529 -18.1172 -17.9338 -17.7380
   -12.3645 -12.1277 -12.0619 -11.9251 -11.6988 -11.6733 -11.5702 -10.9585
   -10.9042 -10.6372 -10.5420  -9.8744  -9.7102  -9.3528  -9.1279  -8.6527
    -8.6385  -8.5686  -8.4071  -8.3836  -8.1774  -8.1127  -8.0796  -8.0691
    -7.7015  -7.6391  -7.5159  -7.4862  -7.3486  -7.1879  -7.0857  -6.8637
    -6.6364  -6.3884  -6.1789  -6.1747  -5.9696  -5.9435  -5.7993  -5.7528
    -5.4687  -5.3949  -5.1859  -5.0583  -4.4230  -4.3764  -4.0875  -3.7692
    -0.0840   0.3523   1.0142   1.0719   1.2003   1.2689   1.4798   1.7803
     1.9380   1.9745   2.0533   2.0602   2.1889   2.2909   2.3473   2.4229
     2.4532   2.4684   2.4803   2.5776   2.5994   2.6411

          k =-0.1667-0.0962 0.0000 ( 59226 PWs)   bands (ev):

   -68.0823 -68.0819 -39.5858 -39.5855 -39.5750 -39.5746 -39.5725 -39.5721
   -21.3278 -20.5496 -20.3587 -20.3554 -20.0013 -19.9963 -19.8208 -18.7415
   -18.7380 -18.3870 -18.3826 -18.3715 -18.2812 -18.2772 -18.0907 -18.0878
   -12.5224 -12.5201 -12.4245 -11.5965 -11.5947 -11.4413 -11.4380 -10.9416
   -10.9409  -9.9447  -9.9434  -9.6919  -9.3925  -9.3876  -9.2454  -9.2443
    -9.0581  -9.0573  -8.9190  -8.3387  -8.3377  -7.9178  -7.9156  -7.8740
    -7.8586  -7.7871  -7.6022  -7.5936  -7.1157  -7.1033  -6.9758  -6.9043
    -6.9024  -6.8565  -6.5467  -6.5457  -6.2741  -5.3340  -5.3272  -5.1593
    -5.0816  -4.8060  -4.7949  -4.7565  -4.6188  -4.6044  -4.3477  -4.3428
    -0.2632   0.6846   1.0624   1.1041   1.2523   1.4680   1.5023   1.5608
     1.8052   1.8890   1.9913   2.0100   2.0782   2.1744   2.3041   2.4117
     2.4378   2.4927   2.5320   2.5789   2.6292   2.6589

          k =-0.0000-0.1925 0.0000 ( 59226 PWs)   bands (ev):

   -68.0823 -68.0819 -39.5858 -39.5855 -39.5749 -39.5746 -39.5725 -39.5721
   -21.3279 -20.5454 -20.3669 -20.3546 -20.0008 -19.9905 -19.8239 -18.7430
   -18.7333 -18.4111 -18.3777 -18.3683 -18.2724 -18.2689 -18.0956 -18.0872
   -12.5293 -12.5138 -12.4239 -11.6000 -11.5913 -11.4476 -11.4304 -10.9440
   -10.9398  -9.9447  -9.9440  -9.6915  -9.3947  -9.3835  -9.2459  -9.2455
    -9.0592  -9.0561  -8.9194  -8.3385  -8.3378  -7.9186  -7.9137  -7.8661
    -7.8532  -7.7887  -7.6320  -7.5849  -7.1183  -7.0839  -6.9746  -6.9061
    -6.9019  -6.8651  -6.5479  -6.5438  -6.2746  -5.3426  -5.3122  -5.1595
    -5.0814  -4.8401  -4.7853  -4.7546  -4.6067  -4.5937  -4.3596  -4.3372
    -0.2890   0.8271   1.0439   1.1541   1.2189   1.4428   1.4656   1.5509
     1.7563   1.8579   1.9073   1.9725   2.0267   2.2179   2.3278   2.3736
     2.4304   2.5464   2.5471   2.6436   2.6662   2.6694

          k = 0.5000-0.8660 0.0000 ( 59292 PWs)   bands (ev):

   -68.0823 -68.0819 -39.5858 -39.5855 -39.5750 -39.5746 -39.5725 -39.5721
   -21.0650 -21.0601 -20.4824 -20.4805 -19.4364 -19.4329 -19.4303 -19.4273
   -19.0071 -19.0033 -18.3381 -18.3341 -18.3320 -18.3286 -17.8062 -17.8044
   -12.0851 -12.0827 -12.0803 -12.0776 -11.8937 -11.8916 -11.3462 -11.3431
   -10.2506 -10.2487 -10.1478 -10.1474 -10.1462 -10.1458  -8.5676  -8.5660
    -8.5623  -8.5597  -8.5582  -8.5559  -7.8792  -7.8779  -7.8768  -7.8765
    -7.8371  -7.8364  -7.7705  -7.7668  -7.5070  -7.5030  -6.6269  -6.6249
    -6.3362  -6.3291  -6.3097  -6.3052  -6.2061  -6.2032  -5.7084  -5.7032
    -5.5620  -5.5582  -4.7193  -4.7114  -4.7080  -4.6987  -3.8815  -3.8778
     0.0390   0.1631   1.0404   1.0470   1.4374   1.4600   1.4930   1.5128
     1.7936   1.7949   2.0694   2.0734   2.2281   2.2641   2.3744   2.3808
     2.4454   2.4488   2.5269   2.5388   2.6317   2.6735

          k =-1.0000 0.0000 0.0000 ( 59292 PWs)   bands (ev):

   -68.0823 -68.0819 -39.5858 -39.5855 -39.5750 -39.5746 -39.5725 -39.5721
   -21.0872 -21.0356 -20.4894 -20.4774 -19.4437 -19.4372 -19.4275 -19.4134
   -19.0260 -18.9859 -18.3884 -18.3311 -18.3162 -18.2975 -17.8101 -17.8022
   -12.1269 -12.0833 -12.0638 -12.0496 -11.8978 -11.8870 -11.3647 -11.3254
   -10.2570 -10.2564 -10.1487 -10.1470 -10.1401 -10.1398  -8.6114  -8.5937
    -8.5669  -8.5473  -8.5339  -8.5050  -7.8930  -7.8829  -7.8765  -7.8762
    -7.8308  -7.8294  -7.7934  -7.7522  -7.5295  -7.4826  -6.6268  -6.6222
    -6.3560  -6.3191  -6.3124  -6.2798  -6.2239  -6.1879  -5.7345  -5.6817
    -5.5814  -5.5391  -4.7972  -4.6985  -4.6876  -4.6560  -3.8893  -3.8720
    -0.2177   0.7825   1.0114   1.0910   1.2550   1.3133   1.4893   1.6018
     1.6089   1.6787   1.8873   2.1525   2.1758   2.3064   2.3269   2.4136
     2.4375   2.5353   2.5383   2.5945   2.6279   2.6681

     the Fermi energy is    -0.8482 ev

!    total energy              =   -1133.81156925 Ry

     total all-electron energy =     -6753.487272 Ry
     estimated scf accuracy    <       0.00000002 Ry
     smearing contrib. (-TS)   =      -0.00000000 Ry
     internal energy E=F+TS    =   -1133.81156925 Ry

     The total energy is F=E-TS. E is the sum of the following terms:
     one-electron contribution =   -3914.21277653 Ry
     hartree contribution      =    1985.72569264 Ry
     xc contribution           =    -186.20316533 Ry
     ewald contribution        =    1340.24553442 Ry
     DFT-D3 Dispersion         =      -0.13908327 Ry
     one-center paw contrib.   =    -359.22777118 Ry

     total magnetization       =    12.00 Bohr mag/cell
     absolute magnetization    =    12.00 Bohr mag/cell

     convergence has been achieved in  12 iterations

     Writing output data file ./mytmp/Crdimer0.26-0.1.save/
 
     init_run     :     18.57s CPU     19.71s WALL (       1 calls)
     electrons    :    439.22s CPU    468.52s WALL (       1 calls)

     Called by init_run:
     wfcinit      :     13.80s CPU     14.52s WALL (       1 calls)
     potinit      :      1.53s CPU      1.59s WALL (       1 calls)
     hinit0       :      1.53s CPU      1.62s WALL (       1 calls)

     Called by electrons:
     c_bands      :    356.48s CPU    378.34s WALL (      12 calls)
     sum_band     :     63.79s CPU     68.36s WALL (      12 calls)
     v_of_rho     :      4.04s CPU      4.27s WALL (      13 calls)
     newd         :      8.11s CPU     10.83s WALL (      13 calls)
     PAW_pot      :      6.36s CPU      6.43s WALL (      13 calls)
     mix_rho      :      0.82s CPU      0.84s WALL (      12 calls)

     Called by c_bands:
     init_us_2    :      4.35s CPU      4.39s WALL (     750 calls)
     cegterg      :    345.91s CPU    367.71s WALL (     360 calls)

     Called by *egterg:
     cdiaghg      :     23.38s CPU     36.72s WALL (    2500 calls)
     h_psi        :    221.89s CPU    230.04s WALL (    2530 calls)
     s_psi        :     24.86s CPU     24.91s WALL (    2530 calls)
     g_psi        :      0.68s CPU      0.70s WALL (    2140 calls)

     Called by h_psi:
     h_psi:calbec :     25.60s CPU     26.24s WALL (    2530 calls)
     vloc_psi     :    168.83s CPU    176.25s WALL (    2530 calls)
     add_vuspsi   :     25.45s CPU     25.55s WALL (    2530 calls)

     General routines
     calbec       :     33.57s CPU     34.38s WALL (    2890 calls)
     fft          :      3.73s CPU      4.32s WALL (     319 calls)
     ffts         :      0.10s CPU      0.10s WALL (      50 calls)
     fftw         :    172.17s CPU    179.78s WALL (  227794 calls)
     interpolate  :      0.36s CPU      0.38s WALL (      26 calls)
 
     Parallel routines
     fft_scatt_xy :     27.43s CPU     28.50s WALL (  228163 calls)
     fft_scatt_yz :     67.64s CPU     71.62s WALL (  228163 calls)
 
     PWSCF        :   7m39.79s CPU   8m12.29s WALL

 
   This run was terminated on:  22:51:20  29Mar2021            

=------------------------------------------------------------------------------=
   JOB DONE.
=------------------------------------------------------------------------------=
