
     Program PWSCF v.6.7MaX starts on 29Mar2021 at 22:18:21 

     This program is part of the open-source Quantum ESPRESSO suite
     for quantum simulation of materials; please cite
         "P. Giannozzi et al., J. Phys.:Condens. Matter 21 395502 (2009);
         "P. Giannozzi et al., J. Phys.:Condens. Matter 29 465901 (2017);
          URL http://www.quantum-espresso.org", 
     in publications or presentations arising from this work. More details at
     http://www.quantum-espresso.org/quote

     Parallel version (MPI), running on    48 processors

     MPI processes distributed on     1 nodes
     R & G space division:  proc/nbgrp/npool/nimage =      48
     Reading input from Crdimer0.24-0.4.scf.in

     Current dimensions of program PWSCF are:
     Max number of different atomic species (ntypx) = 10
     Max number of k-points (npk) =  40000
     Max angular momentum in pseudopotentials (lmaxx) =  3
     file N.pbe-n-kjpaw_psl.1.0.0.UPF: wavefunction(s)  2S renormalized
     file Cr.pbe-spn-kjpaw_psl.1.0.0.UPF: wavefunction(s)  3S 3P 3D renormalized
     file Cr.pbe-spn-kjpaw_psl.1.0.0.UPF: wavefunction(s)  3S 3P 3D renormalized

     --------------------------------------------
     Parameters for DFT-D3 Dispersion Correction:
     --------------------------------------------
       Reference C6 values for interpolation: 

         atom   Coordination number   C6
         B          0.000           214.36
         B          0.971           150.74
         B          1.944           106.23
         B          2.913            62.89
         B          4.586            56.06
         N          0.000            50.54
         N          0.994            44.25
         N          2.014            39.35
         N          2.990            31.16
         Cr1        0.000          1381.48
         Cr1        1.827           571.38
         Cr1       10.619           306.69
         Cr2        0.000          1381.48
         Cr2        1.827           571.38
         Cr2       10.619           306.69

       Values used:

         atom   Coordination number  R0_AB[au]  C6      C8
         B          3.343            3.039     62.89   2505.82
         B          3.336            3.039     62.89   2505.99
         B          3.335            3.039     62.89   2506.00
         B          3.335            3.039     62.89   2506.00
         B          3.345            3.039     62.89   2505.77
         B          3.336            3.039     62.89   2505.99
         N          3.137            2.478     31.22    688.67
         N          3.139            2.478     31.22    688.66
         N          3.135            2.478     31.22    688.69
         N          3.135            2.478     31.22    688.69
         N          3.138            2.478     31.22    688.66
         N          3.138            2.478     31.22    688.66
         N          3.160            2.478     31.21    688.47
         N          3.134            2.478     31.22    688.70
         N          3.134            2.478     31.22    688.70
         B          3.365            3.039     62.87   2505.20
         B          3.336            3.039     62.89   2505.99
         B          3.336            3.039     62.89   2505.99
         B          3.345            3.039     62.89   2505.77
         B          3.343            3.039     62.89   2505.82
         B          3.365            3.039     62.87   2505.20
         N          3.160            2.478     31.21    688.47
         B          3.339            3.039     62.89   2505.92
         B          3.340            3.039     62.89   2505.89
         B          3.336            3.039     62.89   2506.00
         N          3.138            2.478     31.22    688.66
         N          3.139            2.478     31.22    688.66
         N          3.134            2.478     31.22    688.70
         N          3.134            2.478     31.22    688.70
         N          3.135            2.478     31.22    688.69
         N          3.135            2.478     31.22    688.69
         B          3.336            3.039     62.89   2506.00
         Cr1        0.102            3.252   1381.48 127494.76
         Cr2        0.102            3.252   1381.48 127494.76

         Molecular C6 ( Ry / a.u.^6 ) =     79164.60


     Subspace diagonalization in iterative solution of the eigenvalue problem:
     one sub-group per band group will be used
     scalapack distributed-memory algorithm (size of sub-group:  6*  6 procs)

 
     Parallelization info
     --------------------
     sticks:   dense  smooth     PW     G-vecs:    dense   smooth      PW
     Min         235      98     26                36277     9874    1408
     Max         236      99     27                36282     9883    1425
     Sum       11311    4741   1285              1741401   474235   68095
 


     bravais-lattice index     =            4
     lattice parameter (alat)  =      18.9275  a.u.
     unit-cell volume          =   10553.3021 (a.u.)^3
     number of atoms/cell      =           34
     number of atomic types    =            4
     number of electrons       =       156.00
     number of Kohn-Sham states=           94
     kinetic-energy cutoff     =      48.0000  Ry
     charge density cutoff     =     457.0000  Ry
     scf convergence threshold =      1.0E-07
     mixing beta               =       0.5000
     number of iterations used =            8  plain     mixing
     Exchange-correlation= SLA  PW   PBX  PBC
                           (   1   4   3   4   0   0   0)

     celldm(1)=  18.927497  celldm(2)=   0.000000  celldm(3)=   1.797125
     celldm(4)=   0.000000  celldm(5)=   0.000000  celldm(6)=   0.000000

     crystal axes: (cart. coord. in units of alat)
               a(1) = (   1.000000   0.000000   0.000000 )  
               a(2) = (  -0.500000   0.866025   0.000000 )  
               a(3) = (   0.000000   0.000000   1.797125 )  

     reciprocal axes: (cart. coord. in units 2 pi/alat)
               b(1) = (  1.000000  0.577350  0.000000 )  
               b(2) = (  0.000000  1.154701  0.000000 )  
               b(3) = (  0.000000  0.000000  0.556444 )  


     PseudoPot. # 1 for B  read from file:
     /home/sf05/q-e-qe-6.7MaX-Release/pseudo/B.pbe-n-kjpaw_psl.1.0.0.UPF
     MD5 check sum: d9c678ba5d3b2fd7b74e61139c9288d8
     Pseudo is Projector augmented-wave + core cor, Zval =  3.0
     Generated using "atomic" code by A. Dal Corso  v.5.1.2
     Shape of augmentation charge: PSQ
     Using radial grid of 1059 points,  4 beta functions with: 
                l(1) =   0
                l(2) =   0
                l(3) =   1
                l(4) =   1
     Q(r) pseudized with 0 coefficients 


     PseudoPot. # 2 for N  read from file:
     /home/sf05/q-e-qe-6.7MaX-Release/pseudo/N.pbe-n-kjpaw_psl.1.0.0.UPF
     MD5 check sum: e0e4e94a9c4025c5b51bd7d8793849bd
     Pseudo is Projector augmented-wave + core cor, Zval =  5.0
     Generated using "atomic" code by A. Dal Corso  v.5.1.2
     Shape of augmentation charge: PSQ
     Using radial grid of 1085 points,  4 beta functions with: 
                l(1) =   0
                l(2) =   0
                l(3) =   1
                l(4) =   1
     Q(r) pseudized with 0 coefficients 


     PseudoPot. # 3 for Cr read from file:
     /home/sf05/q-e-qe-6.7MaX-Release/pseudo/Cr.pbe-spn-kjpaw_psl.1.0.0.UPF
     MD5 check sum: 198f1a2427a48552563eee314eba32ba
     Pseudo is Projector augmented-wave + core cor, Zval = 14.0
     Generated using &quot;atomic&quot; code by A. Dal Corso  v.6.3
     Shape of augmentation charge: PSQ
     Using radial grid of 1183 points,  6 beta functions with: 
                l(1) =   0
                l(2) =   0
                l(3) =   1
                l(4) =   1
                l(5) =   2
                l(6) =   2
     Q(r) pseudized with 0 coefficients 


     PseudoPot. # 4 for Cr read from file:
     /home/sf05/q-e-qe-6.7MaX-Release/pseudo/Cr.pbe-spn-kjpaw_psl.1.0.0.UPF
     MD5 check sum: 198f1a2427a48552563eee314eba32ba
     Pseudo is Projector augmented-wave + core cor, Zval = 14.0
     Generated using &quot;atomic&quot; code by A. Dal Corso  v.6.3
     Shape of augmentation charge: PSQ
     Using radial grid of 1183 points,  6 beta functions with: 
                l(1) =   0
                l(2) =   0
                l(3) =   1
                l(4) =   1
                l(5) =   2
                l(6) =   2
     Q(r) pseudized with 0 coefficients 


     atomic species   valence    mass     pseudopotential
        B              3.00    10.81100     B ( 1.00)
        N              5.00    14.00674     N ( 1.00)
        Cr1           14.00    51.99610     Cr( 1.00)
        Cr2           14.00    51.99610     Cr( 1.00)

     Starting magnetic structure 
     atomic species   magnetization
        B            0.000
        N            0.000
        Cr1          1.000
        Cr2          1.000

     No symmetry found



   Cartesian axes

     site n.     atom                  positions (alat units)
         1           B   tau(   1) = (  -0.1250000   0.2165064   0.8985623  )
         2           B   tau(   2) = (   0.3750000   0.6495191   0.8985623  )
         3           B   tau(   3) = (   0.2500000   0.0000000   0.8985623  )
         4           B   tau(   4) = (   0.7500000   0.0000000   0.8985623  )
         5           B   tau(   5) = (   0.1250000   0.2165064   0.8985623  )
         6           B   tau(   6) = (  -0.3750000   0.6495191   0.8985623  )
         7           N   tau(   7) = (   0.7500005   0.2886748   0.8985623  )
         8           N   tau(   8) = (   0.3750005   0.5051812   0.8985623  )
         9           N   tau(   9) = (   0.3750005   0.0721685   0.8985623  )
        10           N   tau(  10) = (   0.6250005   0.0721685   0.8985623  )
        11           N   tau(  11) = (   0.2500005   0.2886748   0.8985623  )
        12           N   tau(  12) = (   0.6250005   0.5051812   0.8985623  )
        13           N   tau(  13) = (   0.0000005   0.2886748   0.8985623  )
        14           N   tau(  14) = (   0.2500005   0.7216875   0.8985623  )
        15           N   tau(  15) = (  -0.2499995   0.7216875   0.8985623  )
        16           B   tau(  16) = (   0.0000000   0.4330127   0.8985623  )
        17           B   tau(  17) = (   0.1250000   0.6495191   0.8985623  )
        18           B   tau(  18) = (  -0.1250000   0.6495191   0.8985623  )
        19           B   tau(  19) = (   0.3750000   0.2165064   0.8985623  )
        20           B   tau(  20) = (   0.6250000   0.2165064   0.8985623  )
        21           B   tau(  21) = (   0.5000000   0.4330127   0.8985623  )
        22           N   tau(  22) = (   0.5000005   0.2886748   0.8985623  )
        23           B   tau(  23) = (  -0.2500000   0.4330127   0.8985623  )
        24           B   tau(  24) = (   0.2500000   0.4330127   0.8985623  )
        25           B   tau(  25) = (   0.5000000   0.0000000   0.8985623  )
        26           N   tau(  26) = (  -0.1249995   0.5051812   0.8985623  )
        27           N   tau(  27) = (   0.1250005   0.5051812   0.8985623  )
        28           N   tau(  28) = (   0.0000005   0.7216875   0.8985623  )
        29           N   tau(  29) = (   0.5000005   0.7216875   0.8985623  )
        30           N   tau(  30) = (   0.1250005   0.0721685   0.8985623  )
        31           N   tau(  31) = (   0.8750005   0.0721685   0.8985623  )
        32           B   tau(  32) = (   0.0000000   0.0000000   0.8985623  )
        33           Cr1 tau(  33) = (   0.4900000   0.3464102   1.2040735  )
        34           Cr2 tau(  34) = (   0.0100000   0.3464102   1.2040735  )

     number of k points=    15  Gaussian smearing, width (Ry)=  0.0000
                       cart. coord. in units 2pi/alat
        k(    1) = (   0.1666667   0.2886751   0.0000000), wk =   0.0740741
        k(    2) = (   0.1666667  -0.4811252   0.0000000), wk =   0.0740741
        k(    3) = (   0.1666667  -0.0962250   0.0000000), wk =   0.0740741
        k(    4) = (  -0.5000000  -0.8660254   0.0000000), wk =   0.0370370
        k(    5) = (  -0.1666667   0.2886751   0.0000000), wk =   0.0740741
        k(    6) = (   0.3333333   0.0000000   0.0000000), wk =   0.0740741
        k(    7) = (  -0.1666667  -0.4811252   0.0000000), wk =   0.0740741
        k(    8) = (   0.5000000  -0.0962250   0.0000000), wk =   0.0740741
        k(    9) = (  -0.3333333  -0.3849002   0.0000000), wk =   0.0740741
        k(   10) = (   0.5000000   0.0962250   0.0000000), wk =   0.0740741
        k(   11) = (  -0.3333333   0.3849002   0.0000000), wk =   0.0740741
        k(   12) = (  -0.1666667  -0.0962250   0.0000000), wk =   0.0740741
        k(   13) = (  -0.0000000  -0.1924501   0.0000000), wk =   0.0740741
        k(   14) = (   0.5000000  -0.8660254   0.0000000), wk =   0.0370370
        k(   15) = (  -1.0000000   0.0000000   0.0000000), wk =   0.0370370

     Dense  grid:  1741401 G-vectors     FFT dimensions: ( 135, 135, 240)

     Smooth grid:   474235 G-vectors     FFT dimensions: (  90,  90, 160)

     Estimated max dynamical RAM per process >     218.62 MB

     Estimated total dynamical RAM >      10.25 GB
     Generating pointlists ...
     new r_m :   0.0595 (alat units)  1.1269 (a.u.) for type    1
     new r_m :   0.0595 (alat units)  1.1269 (a.u.) for type    2
     new r_m :   0.1283 (alat units)  2.4288 (a.u.) for type    3
     new r_m :   0.1283 (alat units)  2.4288 (a.u.) for type    4

     Initial potential from superposition of free atoms

     starting charge  155.99382, renormalised to  156.00000

     negative rho (up, down):  6.506E-03 4.655E-04
     Starting wfcs are  148 randomized atomic wfcs
     Checking if some PAW data can be deallocated... 

     total cpu time spent up to now is       19.7 secs

     Self-consistent Calculation

     iteration #  1     ecut=    48.00 Ry     beta= 0.50
     Davidson diagonalization with overlap
     ethr =  1.00E-02,  avg # of iterations =  2.9

     negative rho (up, down):  4.693E-03 2.947E-03

     total cpu time spent up to now is       59.6 secs

     total energy              =   -1130.76723085 Ry
     estimated scf accuracy    <      11.37036359 Ry

     total magnetization       =    12.00 Bohr mag/cell
     absolute magnetization    =    12.16 Bohr mag/cell

     iteration #  2     ecut=    48.00 Ry     beta= 0.50
     Davidson diagonalization with overlap
     ethr =  7.29E-03,  avg # of iterations =  2.7

     negative rho (up, down):  7.077E-03 1.094E-02

     total cpu time spent up to now is       96.6 secs

     total energy              =   -1133.09274280 Ry
     estimated scf accuracy    <       3.17959119 Ry

     total magnetization       =    12.00 Bohr mag/cell
     absolute magnetization    =    12.00 Bohr mag/cell

     iteration #  3     ecut=    48.00 Ry     beta= 0.50
     Davidson diagonalization with overlap
     ethr =  2.04E-03,  avg # of iterations =  6.8

     negative rho (up, down):  3.371E-03 5.910E-03

     total cpu time spent up to now is      133.4 secs

     total energy              =   -1133.63489186 Ry
     estimated scf accuracy    <       0.63498992 Ry

     total magnetization       =    12.00 Bohr mag/cell
     absolute magnetization    =    12.05 Bohr mag/cell

     iteration #  4     ecut=    48.00 Ry     beta= 0.50
     Davidson diagonalization with overlap
     ethr =  4.07E-04,  avg # of iterations =  7.1

     negative rho (up, down):  6.846E-03 1.402E-02

     total cpu time spent up to now is      169.8 secs

     total energy              =   -1133.79458044 Ry
     estimated scf accuracy    <       0.25436250 Ry

     total magnetization       =    12.00 Bohr mag/cell
     absolute magnetization    =    12.01 Bohr mag/cell

     iteration #  5     ecut=    48.00 Ry     beta= 0.50
     Davidson diagonalization with overlap
     ethr =  1.63E-04,  avg # of iterations =  9.3

     negative rho (up, down):  4.449E-03 9.653E-03

     total cpu time spent up to now is      208.7 secs

     total energy              =   -1133.80795016 Ry
     estimated scf accuracy    <       0.01796933 Ry

     total magnetization       =    12.00 Bohr mag/cell
     absolute magnetization    =    12.00 Bohr mag/cell

     iteration #  6     ecut=    48.00 Ry     beta= 0.50
     Davidson diagonalization with overlap
     c_bands:  1 eigenvalues not converged
     c_bands:  2 eigenvalues not converged
     c_bands:  1 eigenvalues not converged
     c_bands:  4 eigenvalues not converged
     c_bands:  1 eigenvalues not converged
     c_bands:  3 eigenvalues not converged
     c_bands:  1 eigenvalues not converged
     c_bands:  2 eigenvalues not converged
     c_bands:  1 eigenvalues not converged
     ethr =  1.15E-05,  avg # of iterations = 14.4

     negative rho (up, down):  3.330E-03 7.799E-03

     total cpu time spent up to now is      262.9 secs

     total energy              =   -1133.81040552 Ry
     estimated scf accuracy    <       0.00459100 Ry

     total magnetization       =    12.00 Bohr mag/cell
     absolute magnetization    =    12.00 Bohr mag/cell

     iteration #  7     ecut=    48.00 Ry     beta= 0.50
     Davidson diagonalization with overlap
     c_bands:  1 eigenvalues not converged
     c_bands:  1 eigenvalues not converged
     ethr =  2.94E-06,  avg # of iterations =  9.5

     negative rho (up, down):  3.002E-03 7.545E-03

     total cpu time spent up to now is      306.7 secs

     total energy              =   -1133.81144296 Ry
     estimated scf accuracy    <       0.00030631 Ry

     total magnetization       =    12.00 Bohr mag/cell
     absolute magnetization    =    12.00 Bohr mag/cell

     iteration #  8     ecut=    48.00 Ry     beta= 0.50
     Davidson diagonalization with overlap
     ethr =  1.96E-07,  avg # of iterations =  5.0

     negative rho (up, down):  2.869E-03 7.342E-03

     total cpu time spent up to now is      342.9 secs

     total energy              =   -1133.81153133 Ry
     estimated scf accuracy    <       0.00006172 Ry

     total magnetization       =    12.00 Bohr mag/cell
     absolute magnetization    =    12.00 Bohr mag/cell

     iteration #  9     ecut=    48.00 Ry     beta= 0.50
     Davidson diagonalization with overlap
     ethr =  3.96E-08,  avg # of iterations =  2.8

     negative rho (up, down):  2.830E-03 7.306E-03

     total cpu time spent up to now is      379.5 secs

     total energy              =   -1133.81159314 Ry
     estimated scf accuracy    <       0.00000689 Ry

     total magnetization       =    12.00 Bohr mag/cell
     absolute magnetization    =    12.00 Bohr mag/cell

     iteration # 10     ecut=    48.00 Ry     beta= 0.50
     Davidson diagonalization with overlap
     ethr =  4.42E-09,  avg # of iterations =  4.5

     negative rho (up, down):  2.818E-03 7.304E-03

     total cpu time spent up to now is      414.3 secs

     total energy              =   -1133.81161102 Ry
     estimated scf accuracy    <       0.00000269 Ry

     total magnetization       =    12.00 Bohr mag/cell
     absolute magnetization    =    12.00 Bohr mag/cell

     iteration # 11     ecut=    48.00 Ry     beta= 0.50
     Davidson diagonalization with overlap
     ethr =  1.72E-09,  avg # of iterations =  2.7

     negative rho (up, down):  2.815E-03 7.305E-03

     total cpu time spent up to now is      451.2 secs

     total energy              =   -1133.81161919 Ry
     estimated scf accuracy    <       0.00000028 Ry

     total magnetization       =    12.00 Bohr mag/cell
     absolute magnetization    =    12.00 Bohr mag/cell

     iteration # 12     ecut=    48.00 Ry     beta= 0.50
     Davidson diagonalization with overlap
     ethr =  1.77E-10,  avg # of iterations =  5.0

     negative rho (up, down):  2.812E-03 7.309E-03
 
     Magnetic moment per site:
     atom:    1    charge:    0.8804    magn:    0.0009    constr:    0.0000
     atom:    2    charge:    0.8803    magn:    0.0004    constr:    0.0000
     atom:    3    charge:    0.8803    magn:    0.0001    constr:    0.0000
     atom:    4    charge:    0.8803    magn:    0.0001    constr:    0.0000
     atom:    5    charge:    0.8804    magn:    0.0008    constr:    0.0000
     atom:    6    charge:    0.8803    magn:    0.0003    constr:    0.0000
     atom:    7    charge:    2.8607    magn:    0.0035    constr:    0.0000
     atom:    8    charge:    2.8607    magn:    0.0049    constr:    0.0000
     atom:    9    charge:    2.8609    magn:    0.0012    constr:    0.0000
     atom:   10    charge:    2.8609    magn:    0.0010    constr:    0.0000
     atom:   11    charge:    2.8607    magn:    0.0048    constr:    0.0000
     atom:   12    charge:    2.8607    magn:    0.0043    constr:    0.0000
     atom:   13    charge:    2.8597    magn:    0.0113    constr:    0.0000
     atom:   14    charge:    2.8599    magn:    0.0002    constr:    0.0000
     atom:   15    charge:    2.8599    magn:    0.0001    constr:    0.0000
     atom:   16    charge:    0.8805    magn:    0.0004    constr:    0.0000
     atom:   17    charge:    0.8800    magn:    0.0004    constr:    0.0000
     atom:   18    charge:    0.8800    magn:    0.0003    constr:    0.0000
     atom:   19    charge:    0.8799    magn:    0.0008    constr:    0.0000
     atom:   20    charge:    0.8798    magn:    0.0009    constr:    0.0000
     atom:   21    charge:    0.8803    magn:    0.0004    constr:    0.0000
     atom:   22    charge:    2.8610    magn:    0.0113    constr:    0.0000
     atom:   23    charge:    0.8798    magn:    0.0003    constr:    0.0000
     atom:   24    charge:    0.8798    magn:    0.0003    constr:    0.0000
     atom:   25    charge:    0.8799    magn:    0.0002    constr:    0.0000
     atom:   26    charge:    2.8596    magn:    0.0043    constr:    0.0000
     atom:   27    charge:    2.8596    magn:    0.0049    constr:    0.0000
     atom:   28    charge:    2.8598    magn:    0.0004    constr:    0.0000
     atom:   29    charge:    2.8596    magn:    0.0004    constr:    0.0000
     atom:   30    charge:    2.8595    magn:    0.0012    constr:    0.0000
     atom:   31    charge:    2.8595    magn:    0.0010    constr:    0.0000
     atom:   32    charge:    0.8802    magn:    0.0002    constr:    0.0000
     atom:   33    charge:   12.8029    magn:    4.7935    constr:    0.0000
     atom:   34    charge:   12.8030    magn:    4.7935    constr:    0.0000

     total cpu time spent up to now is      486.1 secs

     End of self-consistent calculation

 ------ SPIN UP ------------


          k = 0.1667 0.2887 0.0000 ( 59267 PWs)   bands (ev):

   -72.4653 -72.4647 -43.9301 -43.9296 -43.9266 -43.9260 -43.9188 -43.9182
   -21.2753 -20.6890 -20.6841 -20.1416 -20.1158 -19.6152 -19.6114 -19.1275
   -18.7264 -18.7198 -18.4938 -18.4703 -18.2227 -18.1133 -18.1051 -17.8772
   -12.5117 -12.2399 -12.2230 -11.8487 -11.8449 -11.6856 -11.2193 -11.2163
   -10.4204 -10.3945 -10.1449 -10.1428  -9.6165  -9.6155  -8.8651  -8.8592
    -8.8454  -8.7933  -8.7895  -8.6233  -8.2245  -8.0733  -8.0555  -7.8594
    -7.8520  -7.4658  -7.4646  -7.3359  -7.2625  -7.2357  -7.2339  -6.9949
    -6.9756  -6.5863  -6.5758  -6.1812  -6.1804  -5.9002  -5.4462  -5.3236
    -5.3054  -5.2276  -4.9613  -4.9096  -4.5344  -4.3857  -4.3676  -4.0063
    -2.2652  -1.6309  -1.4182  -1.4101  -1.3985  -1.3930  -1.3761  -1.3569
    -1.3396  -1.3021  -1.2975  -1.2734   0.6292   0.7550   1.0779   1.1536
     1.1805   1.4001   1.4496   1.5556   1.5689   1.6509

          k = 0.1667-0.4811 0.0000 ( 59291 PWs)   bands (ev):

   -72.4653 -72.4647 -43.9301 -43.9296 -43.9266 -43.9260 -43.9188 -43.9182
   -21.1454 -20.9395 -20.7516 -20.1894 -19.8324 -19.4950 -19.3441 -19.2038
   -19.0418 -18.8085 -18.6698 -18.5707 -18.1780 -18.1153 -17.9507 -17.7514
   -12.3758 -12.1410 -12.0722 -11.9336 -11.7074 -11.6863 -11.5797 -10.9693
   -10.9180 -10.6515 -10.5502  -9.8879  -9.7205  -9.3635  -9.1386  -8.6972
    -8.6504  -8.5807  -8.4164  -8.3937  -8.1893  -8.1565  -8.0903  -8.0776
    -7.7163  -7.6508  -7.5217  -7.5011  -7.3868  -7.1980  -7.0951  -6.8887
    -6.6498  -6.4194  -6.2015  -6.1849  -6.0051  -5.9570  -5.8111  -5.7708
    -5.4786  -5.4342  -5.2368  -5.0669  -4.4748  -4.3723  -4.1200  -3.7938
    -2.2557  -1.6382  -1.4165  -1.4096  -1.3979  -1.3897  -1.3810  -1.3563
    -1.3398  -1.3014  -1.2980  -1.2732   0.6143   0.6316   1.0128   1.1304
     1.1538   1.2247   1.3524   1.7475   1.8001   1.9085

          k = 0.1667-0.0962 0.0000 ( 59226 PWs)   bands (ev):

   -72.4653 -72.4647 -43.9301 -43.9295 -43.9266 -43.9260 -43.9188 -43.9182
   -21.3416 -20.5651 -20.3720 -20.3685 -20.0153 -20.0102 -19.8330 -18.7560
   -18.7533 -18.4096 -18.3879 -18.3870 -18.3034 -18.2813 -18.1033 -18.0997
   -12.5402 -12.5250 -12.4348 -11.6076 -11.6049 -11.4616 -11.4401 -10.9525
   -10.9518  -9.9557  -9.9553  -9.7036  -9.4067  -9.3953  -9.2579  -9.2558
    -9.0695  -9.0672  -8.9522  -8.3502  -8.3499  -7.9311  -7.9239  -7.9146
    -7.8732  -7.7975  -7.6322  -7.6192  -7.1491  -7.1334  -6.9872  -6.9149
    -6.9134  -6.8780  -6.5572  -6.5567  -6.2848  -5.3684  -5.3598  -5.1707
    -5.0929  -4.8480  -4.8094  -4.7926  -4.6554  -4.6173  -4.3725  -4.3653
    -2.2747  -1.6236  -1.4199  -1.4107  -1.4000  -1.3961  -1.3720  -1.3575
    -1.3394  -1.3029  -1.2970  -1.2735   0.6450   0.8631   1.0652   1.1455
     1.2418   1.3155   1.3605   1.5544   1.6161   1.6477

          k =-0.5000-0.8660 0.0000 ( 59292 PWs)   bands (ev):

   -72.4653 -72.4647 -43.9302 -43.9296 -43.9266 -43.9260 -43.9188 -43.9182
   -21.0786 -21.0748 -20.4951 -20.4945 -19.4600 -19.4584 -19.4328 -19.4322
   -19.0198 -19.0169 -18.3598 -18.3576 -18.3383 -18.3323 -17.8191 -17.8184
   -12.1021 -12.0993 -12.0869 -12.0825 -11.9033 -11.9021 -11.3568 -11.3544
   -10.2619 -10.2613 -10.1623 -10.1615 -10.1544 -10.1537  -8.6019  -8.5925
    -8.5770  -8.5752  -8.5704  -8.5665  -7.8915  -7.8909  -7.8873  -7.8871
    -7.8482  -7.8475  -7.7984  -7.7965  -7.5168  -7.5138  -6.6373  -6.6366
    -6.3913  -6.3855  -6.3166  -6.3146  -6.2172  -6.2150  -5.7340  -5.7311
    -5.5726  -5.5698  -4.7607  -4.7556  -4.7213  -4.7117  -3.9068  -3.9049
    -2.0575  -1.9101  -1.4035  -1.3893  -1.3887  -1.3839  -1.3807  -1.3747
    -1.3664  -1.3639  -1.2983  -1.2903   0.9524   0.9851   1.1317   1.1783
     1.3599   1.3699   1.4397   1.4882   1.6259   1.6314

          k =-0.1667 0.2887 0.0000 ( 59267 PWs)   bands (ev):

   -72.4653 -72.4647 -43.9301 -43.9296 -43.9266 -43.9260 -43.9188 -43.9182
   -21.2753 -20.6890 -20.6841 -20.1416 -20.1158 -19.6152 -19.6114 -19.1275
   -18.7264 -18.7198 -18.4938 -18.4703 -18.2227 -18.1133 -18.1052 -17.8772
   -12.5117 -12.2399 -12.2230 -11.8486 -11.8449 -11.6856 -11.2192 -11.2163
   -10.4204 -10.3945 -10.1449 -10.1428  -9.6165  -9.6155  -8.8651  -8.8592
    -8.8454  -8.7933  -8.7895  -8.6232  -8.2245  -8.0733  -8.0555  -7.8593
    -7.8520  -7.4658  -7.4646  -7.3359  -7.2625  -7.2356  -7.2339  -6.9950
    -6.9756  -6.5863  -6.5758  -6.1812  -6.1803  -5.9002  -5.4463  -5.3236
    -5.3055  -5.2275  -4.9613  -4.9096  -4.5344  -4.3857  -4.3676  -4.0063
    -2.2652  -1.6309  -1.4182  -1.4101  -1.3985  -1.3930  -1.3761  -1.3569
    -1.3396  -1.3021  -1.2975  -1.2734   0.6292   0.7550   1.0779   1.1536
     1.1804   1.4001   1.4495   1.5556   1.5689   1.6509

          k = 0.3333 0.0000 0.0000 ( 59267 PWs)   bands (ev):

   -72.4653 -72.4647 -43.9301 -43.9295 -43.9266 -43.9260 -43.9188 -43.9182
   -21.2748 -20.7167 -20.6562 -20.1387 -20.1171 -19.6439 -19.5847 -19.1299
   -18.7444 -18.6958 -18.4943 -18.4725 -18.2177 -18.1378 -18.0878 -17.8764
   -12.5114 -12.2379 -12.2248 -11.8575 -11.8386 -11.6835 -11.2383 -11.1978
   -10.4183 -10.3952 -10.1590 -10.1293  -9.6232  -9.6074  -8.8704  -8.8550
    -8.8419  -8.8171  -8.7670  -8.6241  -8.2263  -8.1361  -7.9915  -7.8569
    -7.8518  -7.4725  -7.4581  -7.3255  -7.2692  -7.2461  -7.2229  -6.9944
    -6.9777  -6.6499  -6.5192  -6.1844  -6.1761  -5.9065  -5.4457  -5.3404
    -5.2763  -5.2282  -4.9645  -4.9111  -4.5239  -4.4169  -4.3483  -4.0066
    -2.1740  -1.7676  -1.4116  -1.3992  -1.3951  -1.3910  -1.3760  -1.3626
    -1.3535  -1.3465  -1.3006  -1.2881   0.9394   1.0344   1.1058   1.1939
     1.2107   1.3353   1.4436   1.4812   1.5411   1.5987

          k =-0.1667-0.4811 0.0000 ( 59291 PWs)   bands (ev):

   -72.4653 -72.4647 -43.9301 -43.9296 -43.9266 -43.9260 -43.9188 -43.9182
   -21.1454 -20.9395 -20.7516 -20.1894 -19.8324 -19.4950 -19.3441 -19.2038
   -19.0418 -18.8085 -18.6698 -18.5707 -18.1780 -18.1153 -17.9507 -17.7514
   -12.3759 -12.1409 -12.0722 -11.9335 -11.7074 -11.6863 -11.5797 -10.9693
   -10.9181 -10.6515 -10.5502  -9.8879  -9.7205  -9.3636  -9.1387  -8.6972
    -8.6503  -8.5807  -8.4164  -8.3937  -8.1892  -8.1565  -8.0904  -8.0776
    -7.7163  -7.6508  -7.5216  -7.5011  -7.3868  -7.1980  -7.0951  -6.8887
    -6.6498  -6.4194  -6.2015  -6.1849  -6.0051  -5.9570  -5.8111  -5.7708
    -5.4786  -5.4342  -5.2367  -5.0669  -4.4748  -4.3723  -4.1200  -3.7938
    -2.2557  -1.6382  -1.4165  -1.4096  -1.3979  -1.3897  -1.3809  -1.3563
    -1.3398  -1.3014  -1.2980  -1.2732   0.6143   0.6316   1.0128   1.1304
     1.1538   1.2248   1.3524   1.7475   1.8001   1.9082

          k = 0.5000-0.0962 0.0000 ( 59291 PWs)   bands (ev):

   -72.4653 -72.4647 -43.9301 -43.9296 -43.9266 -43.9260 -43.9188 -43.9182
   -21.1421 -20.9487 -20.7455 -20.1875 -19.8328 -19.4961 -19.3527 -19.1975
   -19.0429 -18.8079 -18.6589 -18.5783 -18.1646 -18.1342 -17.9464 -17.7513
   -12.3746 -12.1415 -12.0698 -11.9381 -11.7209 -11.6702 -11.5824 -10.9703
   -10.9150 -10.6495 -10.5529  -9.8854  -9.7213  -9.3647  -9.1379  -8.6844
    -8.6513  -8.5788  -8.4311  -8.4209  -8.1864  -8.1313  -8.1052  -8.0641
    -7.7119  -7.6517  -7.5203  -7.5029  -7.3807  -7.1997  -7.0957  -6.8908
    -6.6502  -6.4218  -6.2299  -6.1844  -5.9855  -5.9560  -5.8102  -5.7735
    -5.4803  -5.4274  -5.2135  -5.0854  -4.4479  -4.4078  -4.1124  -3.7954
    -2.0580  -1.9095  -1.4034  -1.3915  -1.3878  -1.3840  -1.3807  -1.3740
    -1.3664  -1.3639  -1.2984  -1.2903   0.8969   0.9793   1.1263   1.1621
     1.2796   1.3645   1.4539   1.4644   1.5487   1.7257

          k =-0.3333-0.3849 0.0000 ( 59291 PWs)   bands (ev):

   -72.4653 -72.4647 -43.9301 -43.9296 -43.9266 -43.9260 -43.9188 -43.9182
   -21.1433 -20.9455 -20.7477 -20.1874 -19.8346 -19.4945 -19.3468 -19.2007
   -19.0470 -18.8057 -18.6606 -18.5773 -18.1673 -18.1309 -17.9466 -17.7515
   -12.3753 -12.1393 -12.0726 -11.9366 -11.7088 -11.6838 -11.5812 -10.9697
   -10.9151 -10.6487 -10.5538  -9.8862  -9.7214  -9.3643  -9.1384  -8.6888
    -8.6494  -8.5809  -8.4214  -8.4147  -8.1887  -8.1396  -8.0901  -8.0802
    -7.7127  -7.6492  -7.5288  -7.4954  -7.3806  -7.1999  -7.0964  -6.8957
    -6.6476  -6.4172  -6.2110  -6.1873  -5.9962  -5.9549  -5.8106  -5.7867
    -5.4798  -5.4214  -5.2140  -5.0850  -4.4519  -4.4043  -4.1120  -3.7952
    -2.1588  -1.7813  -1.4099  -1.3981  -1.3924  -1.3878  -1.3811  -1.3637
    -1.3538  -1.3474  -1.2995  -1.2883   0.7835   0.9765   1.0628   1.1379
     1.1816   1.2454   1.3344   1.5164   1.7013   1.8413

          k = 0.5000 0.0962 0.0000 ( 59291 PWs)   bands (ev):

   -72.4653 -72.4647 -43.9301 -43.9296 -43.9266 -43.9260 -43.9188 -43.9182
   -21.1421 -20.9487 -20.7455 -20.1875 -19.8328 -19.4961 -19.3527 -19.1975
   -19.0429 -18.8079 -18.6589 -18.5784 -18.1646 -18.1342 -17.9464 -17.7513
   -12.3746 -12.1416 -12.0698 -11.9381 -11.7208 -11.6702 -11.5824 -10.9702
   -10.9150 -10.6495 -10.5529  -9.8854  -9.7214  -9.3647  -9.1378  -8.6844
    -8.6513  -8.5789  -8.4311  -8.4209  -8.1864  -8.1313  -8.1051  -8.0640
    -7.7120  -7.6517  -7.5204  -7.5029  -7.3807  -7.1998  -7.0957  -6.8908
    -6.6501  -6.4218  -6.2299  -6.1843  -5.9855  -5.9559  -5.8103  -5.7735
    -5.4804  -5.4274  -5.2135  -5.0853  -4.4479  -4.4078  -4.1124  -3.7954
    -2.0580  -1.9095  -1.4034  -1.3915  -1.3878  -1.3840  -1.3807  -1.3740
    -1.3664  -1.3639  -1.2984  -1.2903   0.8969   0.9793   1.1263   1.1621
     1.2795   1.3645   1.4539   1.4644   1.5487   1.7258

          k =-0.3333 0.3849 0.0000 ( 59291 PWs)   bands (ev):

   -72.4653 -72.4647 -43.9301 -43.9296 -43.9266 -43.9260 -43.9188 -43.9182
   -21.1433 -20.9455 -20.7477 -20.1874 -19.8346 -19.4945 -19.3468 -19.2007
   -19.0470 -18.8057 -18.6606 -18.5773 -18.1673 -18.1309 -17.9466 -17.7515
   -12.3753 -12.1393 -12.0726 -11.9366 -11.7088 -11.6838 -11.5812 -10.9697
   -10.9151 -10.6487 -10.5538  -9.8863  -9.7214  -9.3643  -9.1384  -8.6888
    -8.6495  -8.5808  -8.4215  -8.4147  -8.1888  -8.1396  -8.0900  -8.0802
    -7.7127  -7.6492  -7.5288  -7.4954  -7.3806  -7.1998  -7.0965  -6.8957
    -6.6477  -6.4171  -6.2110  -6.1874  -5.9962  -5.9550  -5.8106  -5.7867
    -5.4797  -5.4213  -5.2140  -5.0850  -4.4519  -4.4043  -4.1120  -3.7951
    -2.1588  -1.7813  -1.4099  -1.3981  -1.3924  -1.3878  -1.3811  -1.3637
    -1.3538  -1.3474  -1.2995  -1.2883   0.7835   0.9765   1.0629   1.1379
     1.1816   1.2454   1.3344   1.5164   1.7013   1.8413

          k =-0.1667-0.0962 0.0000 ( 59226 PWs)   bands (ev):

   -72.4653 -72.4647 -43.9301 -43.9295 -43.9266 -43.9260 -43.9188 -43.9182
   -21.3416 -20.5651 -20.3720 -20.3685 -20.0153 -20.0102 -19.8330 -18.7560
   -18.7533 -18.4096 -18.3879 -18.3870 -18.3034 -18.2813 -18.1033 -18.0997
   -12.5402 -12.5250 -12.4347 -11.6076 -11.6049 -11.4616 -11.4402 -10.9525
   -10.9519  -9.9557  -9.9553  -9.7036  -9.4067  -9.3953  -9.2579  -9.2558
    -9.0695  -9.0672  -8.9522  -8.3503  -8.3499  -7.9311  -7.9238  -7.9146
    -7.8732  -7.7976  -7.6322  -7.6192  -7.1491  -7.1334  -6.9873  -6.9149
    -6.9133  -6.8781  -6.5572  -6.5567  -6.2849  -5.3684  -5.3598  -5.1706
    -5.0930  -4.8480  -4.8094  -4.7926  -4.6554  -4.6173  -4.3725  -4.3653
    -2.2747  -1.6236  -1.4199  -1.4107  -1.4000  -1.3961  -1.3720  -1.3575
    -1.3394  -1.3029  -1.2970  -1.2735   0.6450   0.8631   1.0652   1.1454
     1.2418   1.3155   1.3605   1.5544   1.6161   1.6477

          k =-0.0000-0.1925 0.0000 ( 59226 PWs)   bands (ev):

   -72.4653 -72.4647 -43.9301 -43.9296 -43.9266 -43.9259 -43.9188 -43.9182
   -21.3418 -20.5587 -20.3916 -20.3595 -20.0202 -19.9963 -19.8377 -18.7656
   -18.7385 -18.4393 -18.3911 -18.3757 -18.2811 -18.2806 -18.1169 -18.0928
   -12.5384 -12.5276 -12.4340 -11.6166 -11.5975 -11.4566 -11.4419 -10.9573
   -10.9492  -9.9606  -9.9501  -9.7042  -9.4069  -9.3938  -9.2588  -9.2554
    -9.0686  -9.0684  -8.9530  -8.3529  -8.3458  -7.9325  -7.9239  -7.8879
    -7.8702  -7.7994  -7.6995  -7.5925  -7.1588  -7.0924  -6.9852  -6.9207
    -6.9096  -6.8954  -6.5627  -6.5505  -6.2855  -5.3939  -5.3191  -5.1713
    -5.0924  -4.9117  -4.8087  -4.7694  -4.6217  -4.6124  -4.4084  -4.3434
    -2.3065  -1.5775  -1.4222  -1.4149  -1.4014  -1.3965  -1.3721  -1.3553
    -1.3339  -1.3035  -1.2900  -1.2323   0.4736   0.7919   1.0279   1.1167
     1.2216   1.3598   1.3668   1.5878   1.6414   1.7262

          k = 0.5000-0.8660 0.0000 ( 59292 PWs)   bands (ev):

   -72.4653 -72.4647 -43.9302 -43.9296 -43.9266 -43.9260 -43.9188 -43.9182
   -21.0785 -21.0748 -20.4951 -20.4945 -19.4600 -19.4584 -19.4328 -19.4322
   -19.0198 -19.0169 -18.3598 -18.3576 -18.3383 -18.3323 -17.8191 -17.8184
   -12.1021 -12.0994 -12.0869 -12.0826 -11.9033 -11.9021 -11.3567 -11.3544
   -10.2619 -10.2614 -10.1623 -10.1615 -10.1544 -10.1537  -8.6019  -8.5925
    -8.5770  -8.5752  -8.5703  -8.5665  -7.8915  -7.8909  -7.8873  -7.8870
    -7.8483  -7.8476  -7.7984  -7.7964  -7.5169  -7.5138  -6.6372  -6.6365
    -6.3913  -6.3855  -6.3166  -6.3146  -6.2171  -6.2150  -5.7340  -5.7311
    -5.5727  -5.5699  -4.7607  -4.7556  -4.7213  -4.7117  -3.9068  -3.9049
    -2.0575  -1.9101  -1.4035  -1.3893  -1.3887  -1.3839  -1.3807  -1.3747
    -1.3664  -1.3639  -1.2984  -1.2903   0.9524   0.9851   1.1317   1.1783
     1.3599   1.3697   1.4398   1.4881   1.6260   1.6314

          k =-1.0000 0.0000 0.0000 ( 59292 PWs)   bands (ev):

   -72.4653 -72.4647 -43.9301 -43.9296 -43.9266 -43.9260 -43.9188 -43.9182
   -21.1051 -21.0448 -20.5125 -20.4826 -19.4780 -19.4358 -19.4317 -19.4299
   -19.0450 -18.9956 -18.4088 -18.3531 -18.3211 -18.3047 -17.8324 -17.8076
   -12.1376 -12.1002 -12.0714 -12.0570 -11.9148 -11.8918 -11.3785 -11.3347
   -10.2807 -10.2593 -10.1639 -10.1588 -10.1494 -10.1449  -8.6630  -8.6071
    -8.5818  -8.5535  -8.5426  -8.5172  -7.9117  -7.9027  -7.8858  -7.8763
    -7.8620  -7.8376  -7.8323  -7.7602  -7.5429  -7.4906  -6.6452  -6.6264
    -6.4297  -6.3360  -6.3110  -6.3034  -6.2381  -6.1980  -5.7728  -5.7073
    -5.5953  -5.5472  -4.8594  -4.7324  -4.6957  -4.6635  -3.9377  -3.8773
    -2.2897  -1.5889  -1.4188  -1.4138  -1.4002  -1.3900  -1.3810  -1.3528
    -1.3343  -1.3022  -1.2905  -1.2324   0.4475   0.5752   1.0185   1.1077
     1.1575   1.4176   1.5437   1.5999   1.6101   1.8468

 ------ SPIN DOWN ----------


          k = 0.1667 0.2887 0.0000 ( 59267 PWs)   bands (ev):

   -68.0939 -68.0932 -39.5974 -39.5968 -39.5865 -39.5859 -39.5836 -39.5831
   -21.2679 -20.6814 -20.6774 -20.1326 -20.1105 -19.6079 -19.6047 -19.1203
   -18.7175 -18.7125 -18.4852 -18.4647 -18.2142 -18.1060 -18.0999 -17.8700
   -12.5068 -12.2337 -12.2192 -11.8438 -11.8408 -11.6815 -11.2142 -11.2115
   -10.4149 -10.3896 -10.1395 -10.1377  -9.6116  -9.6106  -8.8531  -8.8407
    -8.8374  -8.7885  -8.7851  -8.6188  -8.2201  -8.0443  -8.0338  -7.8543
    -7.8479  -7.4600  -7.4591  -7.3008  -7.2504  -7.2310  -7.2295  -6.9894
    -6.9722  -6.5627  -6.5559  -6.1763  -6.1757  -5.8774  -5.4408  -5.2943
    -5.2845  -5.2228  -4.9340  -4.8963  -4.5105  -4.3639  -4.3536  -3.9873
    -0.2271   0.6504   1.0460   1.1832   1.3093   1.4191   1.4518   1.5226
     1.5489   1.8205   1.8552   2.1189   2.2166   2.2568   2.2777   2.3862
     2.4192   2.5324   2.5421   2.5860   2.5905   2.6479

          k = 0.1667-0.4811 0.0000 ( 59291 PWs)   bands (ev):

   -68.0939 -68.0932 -39.5974 -39.5968 -39.5865 -39.5859 -39.5836 -39.5831
   -21.1373 -20.9335 -20.7441 -20.1819 -19.8255 -19.4878 -19.3373 -19.1961
   -19.0348 -18.8011 -18.6602 -18.5653 -18.1677 -18.1116 -17.9431 -17.7441
   -12.3709 -12.1359 -12.0676 -11.9291 -11.7035 -11.6812 -11.5751 -10.9642
   -10.9125 -10.6458 -10.5457  -9.8823  -9.7158  -9.3583  -9.1337  -8.6651
    -8.6454  -8.5752  -8.4120  -8.3774  -8.1844  -8.1288  -8.0857  -8.0732
    -7.7111  -7.6462  -7.5169  -7.4971  -7.3605  -7.1928  -7.0906  -6.8664
    -6.6441  -6.3964  -6.1829  -6.1788  -5.9805  -5.9513  -5.8062  -5.7507
    -5.4740  -5.4085  -5.2067  -5.0540  -4.4450  -4.3633  -4.0987  -3.7753
    -0.1853   0.6178   0.9977   1.1012   1.1458   1.2554   1.3615   1.7566
     1.8261   1.8654   2.0245   2.1243   2.2527   2.2915   2.3026   2.3527
     2.4420   2.4627   2.5052   2.5139   2.5591   2.6387

          k = 0.1667-0.0962 0.0000 ( 59226 PWs)   bands (ev):

   -68.0939 -68.0932 -39.5974 -39.5967 -39.5865 -39.5859 -39.5836 -39.5831
   -21.3344 -20.5567 -20.3651 -20.3624 -20.0072 -20.0032 -19.8271 -18.7475
   -18.7455 -18.4007 -18.3812 -18.3795 -18.2948 -18.2754 -18.0966 -18.0940
   -12.5343 -12.5210 -12.4301 -11.6029 -11.6006 -11.4554 -11.4366 -10.9476
   -10.9471  -9.9506  -9.9503  -9.6982  -9.4013  -9.3909  -9.2523  -9.2507
    -9.0646  -9.0628  -8.9260  -8.3447  -8.3444  -7.9261  -7.9198  -7.8818
    -7.8659  -7.7933  -7.6089  -7.6015  -7.1211  -7.1112  -6.9823  -6.9103
    -6.9091  -6.8627  -6.5526  -6.5522  -6.2802  -5.3407  -5.3358  -5.1657
    -5.0879  -4.8223  -4.7919  -4.7669  -4.6328  -4.6021  -4.3535  -4.3491
    -0.2650   0.6850   1.0322   1.1203   1.2479   1.4629   1.4830   1.5542
     1.7675   1.8979   1.9977   2.0207   2.0747   2.1564   2.2897   2.3936
     2.4305   2.4940   2.5219   2.5574   2.6254   2.6405

          k =-0.5000-0.8660 0.0000 ( 59292 PWs)   bands (ev):

   -68.0939 -68.0932 -39.5974 -39.5968 -39.5865 -39.5859 -39.5836 -39.5831
   -21.0709 -21.0676 -20.4884 -20.4878 -19.4504 -19.4490 -19.4271 -19.4268
   -19.0127 -19.0103 -18.3507 -18.3487 -18.3320 -18.3270 -17.8120 -17.8113
   -12.0960 -12.0935 -12.0828 -12.0787 -11.8991 -11.8980 -11.3518 -11.3496
   -10.2566 -10.2561 -10.1565 -10.1559 -10.1499 -10.1493  -8.5740  -8.5721
    -8.5694  -8.5672  -8.5644  -8.5621  -7.8862  -7.8857  -7.8828  -7.8825
    -7.8429  -7.8423  -7.7766  -7.7751  -7.5125  -7.5097  -6.6323  -6.6317
    -6.3538  -6.3501  -6.3032  -6.3019  -6.2120  -6.2100  -5.7136  -5.7112
    -5.5676  -5.5652  -4.7344  -4.7302  -4.7038  -4.6966  -3.8873  -3.8859
     0.0369   0.1619   1.0312   1.0367   1.4139   1.4231   1.5191   1.5396
     1.7775   1.7798   2.0625   2.0717   2.1987   2.2188   2.4039   2.4109
     2.4594   2.4625   2.5374   2.5406   2.5763   2.6089

          k =-0.1667 0.2887 0.0000 ( 59267 PWs)   bands (ev):

   -68.0939 -68.0932 -39.5974 -39.5968 -39.5865 -39.5859 -39.5836 -39.5831
   -21.2679 -20.6814 -20.6774 -20.1326 -20.1105 -19.6079 -19.6047 -19.1203
   -18.7175 -18.7125 -18.4852 -18.4647 -18.2142 -18.1060 -18.0999 -17.8700
   -12.5068 -12.2337 -12.2192 -11.8438 -11.8408 -11.6815 -11.2142 -11.2116
   -10.4149 -10.3896 -10.1395 -10.1378  -9.6116  -9.6106  -8.8531  -8.8406
    -8.8374  -8.7886  -8.7852  -8.6188  -8.2202  -8.0443  -8.0338  -7.8542
    -7.8479  -7.4600  -7.4591  -7.3008  -7.2505  -7.2310  -7.2295  -6.9895
    -6.9723  -6.5627  -6.5559  -6.1763  -6.1757  -5.8774  -5.4409  -5.2943
    -5.2846  -5.2227  -4.9340  -4.8963  -4.5105  -4.3639  -4.3536  -3.9873
    -0.2271   0.6504   1.0461   1.1831   1.3093   1.4191   1.4518   1.5226
     1.5489   1.8205   1.8552   2.1189   2.2165   2.2569   2.2778   2.3862
     2.4192   2.5323   2.5422   2.5860   2.5905   2.6478

          k = 0.3333 0.0000 0.0000 ( 59267 PWs)   bands (ev):

   -68.0939 -68.0932 -39.5974 -39.5967 -39.5865 -39.5859 -39.5836 -39.5831
   -21.2675 -20.7056 -20.6531 -20.1306 -20.1113 -19.6326 -19.5815 -19.1220
   -18.7333 -18.6924 -18.4855 -18.4662 -18.2105 -18.1265 -18.0845 -17.8695
   -12.5065 -12.2322 -12.2205 -11.8522 -11.8345 -11.6797 -11.2316 -11.1946
   -10.4133 -10.3901 -10.1519 -10.1259  -9.6175  -9.6037  -8.8549  -8.8437
    -8.8310  -8.8099  -8.7648  -8.6196  -8.2216  -8.0924  -7.9852  -7.8525
    -7.8476  -7.4656  -7.4537  -7.2940  -7.2545  -7.2405  -7.2197  -6.9889
    -6.9739  -6.6103  -6.5126  -6.1793  -6.1719  -5.8810  -5.4405  -5.3103
    -5.2616  -5.2233  -4.9361  -4.8967  -4.5044  -4.3881  -4.3365  -3.9872
    -0.1496   0.4128   1.0329   1.1943   1.3473   1.4527   1.4611   1.5190
     1.5845   1.8149   2.1046   2.1559   2.2089   2.2518   2.2746   2.4082
     2.4503   2.4969   2.5242   2.5646   2.5715   2.6653

          k =-0.1667-0.4811 0.0000 ( 59291 PWs)   bands (ev):

   -68.0939 -68.0932 -39.5974 -39.5968 -39.5865 -39.5859 -39.5836 -39.5831
   -21.1373 -20.9335 -20.7441 -20.1819 -19.8255 -19.4878 -19.3373 -19.1961
   -19.0348 -18.8011 -18.6602 -18.5653 -18.1677 -18.1115 -17.9431 -17.7441
   -12.3709 -12.1359 -12.0676 -11.9291 -11.7035 -11.6812 -11.5752 -10.9642
   -10.9126 -10.6458 -10.5457  -9.8823  -9.7158  -9.3583  -9.1338  -8.6651
    -8.6454  -8.5752  -8.4119  -8.3774  -8.1844  -8.1288  -8.0858  -8.0733
    -7.7111  -7.6462  -7.5168  -7.4971  -7.3605  -7.1928  -7.0906  -6.8664
    -6.6442  -6.3964  -6.1830  -6.1788  -5.9805  -5.9512  -5.8062  -5.7507
    -5.4741  -5.4085  -5.2067  -5.0540  -4.4450  -4.3634  -4.0987  -3.7753
    -0.1853   0.6178   0.9977   1.1012   1.1457   1.2554   1.3615   1.7567
     1.8261   1.8654   2.0245   2.1243   2.2527   2.2914   2.3026   2.3526
     2.4420   2.4627   2.5052   2.5140   2.5590   2.6396

          k = 0.5000-0.0962 0.0000 ( 59291 PWs)   bands (ev):

   -68.0939 -68.0932 -39.5974 -39.5968 -39.5865 -39.5859 -39.5836 -39.5831
   -21.1348 -20.9405 -20.7395 -20.1805 -19.8257 -19.4886 -19.3437 -19.1914
   -19.0356 -18.8007 -18.6521 -18.5710 -18.1573 -18.1259 -17.9400 -17.7441
   -12.3698 -12.1365 -12.0656 -11.9329 -11.7151 -11.6674 -11.5773 -10.9650
   -10.9101 -10.6441 -10.5479  -9.8803  -9.7165  -9.3592  -9.1332  -8.6576
    -8.6461  -8.5737  -8.4157  -8.3986  -8.1823  -8.1146  -8.0986  -8.0614
    -7.7076  -7.6470  -7.5157  -7.4986  -7.3568  -7.1941  -7.0911  -6.8673
    -6.6444  -6.3982  -6.1970  -6.1798  -5.9696  -5.9506  -5.8055  -5.7521
    -5.4754  -5.4056  -5.1924  -5.0648  -4.4277  -4.3856  -4.0945  -3.7760
     0.0279   0.1748   0.9921   1.1030   1.1439   1.2779   1.6214   1.7336
     1.7920   2.0308   2.0414   2.1428   2.2193   2.2798   2.3150   2.3717
     2.4501   2.4849   2.5367   2.5451   2.6087   2.6302

          k =-0.3333-0.3849 0.0000 ( 59291 PWs)   bands (ev):

   -68.0939 -68.0932 -39.5974 -39.5968 -39.5865 -39.5859 -39.5836 -39.5831
   -21.1357 -20.9381 -20.7412 -20.1804 -19.8271 -19.4874 -19.3393 -19.1939
   -19.0387 -18.7991 -18.6532 -18.5703 -18.1592 -18.1236 -17.9402 -17.7442
   -12.3704 -12.1346 -12.0679 -11.9316 -11.7047 -11.6791 -11.5763 -10.9645
   -10.9102 -10.6435 -10.5486  -9.8809  -9.7166  -9.3590  -9.1336  -8.6602
    -8.6446  -8.5752  -8.4134  -8.3911  -8.1841  -8.1195  -8.0855  -8.0753
    -7.7083  -7.6449  -7.5228  -7.4923  -7.3566  -7.1943  -7.0916  -6.8705
    -6.6424  -6.3953  -6.1861  -6.1820  -5.9758  -5.9498  -5.8058  -5.7596
    -5.4750  -5.4022  -5.1928  -5.0645  -4.4299  -4.3835  -4.0943  -3.7759
    -0.0852   0.3496   1.0035   1.0669   1.1773   1.2708   1.4960   1.7660
     1.9287   1.9423   2.0471   2.0604   2.2091   2.2821   2.3067   2.4092
     2.4302   2.4537   2.5390   2.5500   2.5798   2.6434

          k = 0.5000 0.0962 0.0000 ( 59291 PWs)   bands (ev):

   -68.0939 -68.0932 -39.5974 -39.5968 -39.5865 -39.5859 -39.5836 -39.5831
   -21.1348 -20.9405 -20.7395 -20.1805 -19.8257 -19.4886 -19.3437 -19.1914
   -19.0356 -18.8007 -18.6521 -18.5710 -18.1573 -18.1259 -17.9400 -17.7441
   -12.3698 -12.1365 -12.0656 -11.9329 -11.7151 -11.6674 -11.5773 -10.9650
   -10.9101 -10.6441 -10.5480  -9.8803  -9.7165  -9.3592  -9.1331  -8.6576
    -8.6461  -8.5738  -8.4157  -8.3986  -8.1823  -8.1146  -8.0986  -8.0614
    -7.7077  -7.6469  -7.5158  -7.4987  -7.3568  -7.1942  -7.0910  -6.8673
    -6.6443  -6.3982  -6.1970  -6.1798  -5.9696  -5.9506  -5.8056  -5.7521
    -5.4754  -5.4057  -5.1924  -5.0648  -4.4277  -4.3855  -4.0945  -3.7760
     0.0279   0.1748   0.9921   1.1031   1.1439   1.2778   1.6214   1.7335
     1.7920   2.0308   2.0414   2.1429   2.2194   2.2798   2.3150   2.3716
     2.4502   2.4849   2.5364   2.5453   2.6089   2.6300

          k =-0.3333 0.3849 0.0000 ( 59291 PWs)   bands (ev):

   -68.0939 -68.0932 -39.5974 -39.5968 -39.5865 -39.5859 -39.5836 -39.5831
   -21.1357 -20.9381 -20.7412 -20.1804 -19.8271 -19.4874 -19.3393 -19.1939
   -19.0387 -18.7991 -18.6532 -18.5703 -18.1592 -18.1236 -17.9402 -17.7442
   -12.3704 -12.1346 -12.0680 -11.9316 -11.7047 -11.6792 -11.5763 -10.9646
   -10.9102 -10.6435 -10.5486  -9.8809  -9.7166  -9.3589  -9.1336  -8.6602
    -8.6447  -8.5752  -8.4134  -8.3910  -8.1841  -8.1195  -8.0854  -8.0754
    -7.7082  -7.6449  -7.5229  -7.4923  -7.3566  -7.1943  -7.0917  -6.8705
    -6.6425  -6.3953  -6.1861  -6.1820  -5.9757  -5.9499  -5.8058  -5.7596
    -5.4749  -5.4022  -5.1928  -5.0645  -4.4299  -4.3835  -4.0943  -3.7759
    -0.0852   0.3496   1.0035   1.0669   1.1773   1.2708   1.4960   1.7660
     1.9287   1.9423   2.0471   2.0604   2.2090   2.2822   2.3067   2.4092
     2.4303   2.4536   2.5388   2.5500   2.5797   2.6435

          k =-0.1667-0.0962 0.0000 ( 59226 PWs)   bands (ev):

   -68.0939 -68.0932 -39.5974 -39.5967 -39.5865 -39.5859 -39.5836 -39.5831
   -21.3344 -20.5567 -20.3651 -20.3624 -20.0072 -20.0032 -19.8271 -18.7475
   -18.7455 -18.4008 -18.3812 -18.3795 -18.2948 -18.2754 -18.0966 -18.0940
   -12.5343 -12.5210 -12.4301 -11.6029 -11.6006 -11.4555 -11.4366 -10.9476
   -10.9471  -9.9506  -9.9503  -9.6982  -9.4012  -9.3909  -9.2523  -9.2507
    -9.0645  -9.0628  -8.9260  -8.3447  -8.3444  -7.9261  -7.9198  -7.8818
    -7.8659  -7.7933  -7.6089  -7.6015  -7.1211  -7.1112  -6.9824  -6.9103
    -6.9090  -6.8627  -6.5525  -6.5521  -6.2803  -5.3407  -5.3358  -5.1656
    -5.0880  -4.8222  -4.7919  -4.7669  -4.6328  -4.6021  -4.3535  -4.3491
    -0.2650   0.6850   1.0322   1.1203   1.2479   1.4629   1.4830   1.5542
     1.7675   1.8978   1.9977   2.0207   2.0747   2.1565   2.2896   2.3935
     2.4305   2.4940   2.5221   2.5574   2.6282   2.6404

          k =-0.0000-0.1925 0.0000 ( 59226 PWs)   bands (ev):

   -68.0939 -68.0932 -39.5974 -39.5967 -39.5865 -39.5859 -39.5836 -39.5831
   -21.3345 -20.5519 -20.3813 -20.3541 -20.0123 -19.9914 -19.8306 -18.7562
   -18.7330 -18.4241 -18.3838 -18.3699 -18.2777 -18.2751 -18.1082 -18.0873
   -12.5330 -12.5230 -12.4295 -11.6107 -11.5941 -11.4515 -11.4379 -10.9516
   -10.9448  -9.9551  -9.9456  -9.6987  -9.4015  -9.3896  -9.2535  -9.2499
    -9.0639  -9.0639  -8.9265  -8.3475  -8.3405  -7.9272  -7.9197  -7.8711
    -7.8598  -7.7947  -7.6519  -7.5815  -7.1317  -7.0825  -6.9807  -6.9153
    -6.9057  -6.8725  -6.5574  -6.5467  -6.2808  -5.3604  -5.3081  -5.1661
    -5.0875  -4.8607  -4.7910  -4.7531  -4.6120  -4.5992  -4.3782  -4.3324
    -0.2905   0.8270   1.0672   1.0755   1.2621   1.4346   1.4454   1.5531
     1.7326   1.8584   1.9245   1.9299   2.0291   2.2378   2.3089   2.3601
     2.3800   2.5297   2.5491   2.6072   2.6414   2.6688

          k = 0.5000-0.8660 0.0000 ( 59292 PWs)   bands (ev):

   -68.0939 -68.0932 -39.5974 -39.5967 -39.5865 -39.5859 -39.5836 -39.5831
   -21.0709 -21.0676 -20.4884 -20.4878 -19.4504 -19.4490 -19.4271 -19.4268
   -19.0127 -19.0104 -18.3507 -18.3487 -18.3320 -18.3270 -17.8119 -17.8113
   -12.0960 -12.0935 -12.0827 -12.0788 -11.8991 -11.8980 -11.3517 -11.3496
   -10.2567 -10.2562 -10.1566 -10.1559 -10.1499 -10.1493  -8.5740  -8.5721
    -8.5694  -8.5672  -8.5643  -8.5622  -7.8862  -7.8857  -7.8828  -7.8825
    -7.8430  -7.8423  -7.7766  -7.7751  -7.5125  -7.5097  -6.6322  -6.6317
    -6.3538  -6.3501  -6.3032  -6.3019  -6.2119  -6.2100  -5.7136  -5.7113
    -5.5677  -5.5653  -4.7344  -4.7302  -4.7037  -4.6966  -3.8873  -3.8860
     0.0369   0.1619   1.0313   1.0367   1.4139   1.4231   1.5191   1.5395
     1.7775   1.7797   2.0625   2.0717   2.1987   2.2187   2.4039   2.4108
     2.4595   2.4622   2.5378   2.5402   2.5767   2.6086

          k =-1.0000 0.0000 0.0000 ( 59292 PWs)   bands (ev):

   -68.0939 -68.0932 -39.5974 -39.5967 -39.5866 -39.5859 -39.5836 -39.5831
   -21.0942 -21.0417 -20.5029 -20.4774 -19.4667 -19.4297 -19.4265 -19.4246
   -19.0337 -18.9922 -18.3929 -18.3433 -18.3181 -18.3039 -17.8232 -17.8018
   -12.1289 -12.0941 -12.0689 -12.0553 -11.9092 -11.8889 -11.3715 -11.3315
   -10.2727 -10.2538 -10.1581 -10.1544 -10.1452 -10.1417  -8.6207  -8.5988
    -8.5756  -8.5511  -8.5408  -8.5112  -7.9036  -7.8964  -7.8807  -7.8730
    -7.8365  -7.8347  -7.8118  -7.7495  -7.5357  -7.4887  -6.6392  -6.6231
    -6.3842  -6.3162  -6.3001  -6.2933  -6.2306  -6.1943  -5.7410  -5.6914
    -5.5876  -5.5452  -4.8074  -4.7102  -4.6868  -4.6618  -3.9092  -3.8660
    -0.2188   0.7704   1.0079   1.0997   1.2374   1.3618   1.4250   1.6030
     1.6032   1.6517   1.8773   2.1495   2.2047   2.3097   2.3158   2.3700
     2.4460   2.4914   2.5301   2.5671   2.6287   2.6423

     the Fermi energy is    -0.8531 ev

!    total energy              =   -1133.81162725 Ry

     total all-electron energy =     -6753.487330 Ry
     estimated scf accuracy    <       0.00000002 Ry
     smearing contrib. (-TS)   =      -0.00000000 Ry
     internal energy E=F+TS    =   -1133.81162725 Ry

     The total energy is F=E-TS. E is the sum of the following terms:
     one-electron contribution =   -3914.20810721 Ry
     hartree contribution      =    1985.68192829 Ry
     xc contribution           =    -186.20052529 Ry
     ewald contribution        =    1340.28181113 Ry
     DFT-D3 Dispersion         =      -0.13879406 Ry
     one-center paw contrib.   =    -359.22794013 Ry

     total magnetization       =    12.00 Bohr mag/cell
     absolute magnetization    =    12.00 Bohr mag/cell

     convergence has been achieved in  12 iterations

     Writing output data file ./mytmp/Crdimer0.24-0.4.save/
 
     init_run     :     18.30s CPU     19.38s WALL (       1 calls)
     electrons    :    437.44s CPU    466.51s WALL (       1 calls)

     Called by init_run:
     wfcinit      :     13.50s CPU     14.09s WALL (       1 calls)
     potinit      :      1.57s CPU      1.68s WALL (       1 calls)
     hinit0       :      1.50s CPU      1.60s WALL (       1 calls)

     Called by electrons:
     c_bands      :    354.17s CPU    376.17s WALL (      12 calls)
     sum_band     :     64.28s CPU     68.47s WALL (      12 calls)
     v_of_rho     :      3.99s CPU      4.33s WALL (      13 calls)
     newd         :      8.22s CPU     10.85s WALL (      13 calls)
     PAW_pot      :      6.35s CPU      6.46s WALL (      13 calls)
     mix_rho      :      0.82s CPU      0.84s WALL (      12 calls)

     Called by c_bands:
     init_us_2    :      4.34s CPU      4.37s WALL (     750 calls)
     cegterg      :    343.59s CPU    365.53s WALL (     360 calls)

     Called by *egterg:
     cdiaghg      :     23.36s CPU     37.13s WALL (    2536 calls)
     h_psi        :    220.89s CPU    228.80s WALL (    2566 calls)
     s_psi        :     24.92s CPU     24.93s WALL (    2566 calls)
     g_psi        :      0.66s CPU      0.68s WALL (    2176 calls)

     Called by h_psi:
     h_psi:calbec :     25.63s CPU     26.17s WALL (    2566 calls)
     vloc_psi     :    168.00s CPU    175.26s WALL (    2566 calls)
     add_vuspsi   :     25.29s CPU     25.39s WALL (    2566 calls)

     General routines
     calbec       :     33.65s CPU     34.33s WALL (    2926 calls)
     fft          :      3.75s CPU      4.52s WALL (     319 calls)
     ffts         :      0.09s CPU      0.10s WALL (      50 calls)
     fftw         :    171.40s CPU    178.64s WALL (  225934 calls)
     interpolate  :      0.38s CPU      0.43s WALL (      26 calls)
 
     Parallel routines
     fft_scatt_xy :     27.45s CPU     28.47s WALL (  226303 calls)
     fft_scatt_yz :     67.28s CPU     71.19s WALL (  226303 calls)
 
     PWSCF        :   7m37.74s CPU   8m 9.96s WALL

 
   This run was terminated on:  22:26:31  29Mar2021            

=------------------------------------------------------------------------------=
   JOB DONE.
=------------------------------------------------------------------------------=
