
     Program PWSCF v.6.7MaX starts on 29Mar2021 at 20:21:31 

     This program is part of the open-source Quantum ESPRESSO suite
     for quantum simulation of materials; please cite
         "P. Giannozzi et al., J. Phys.:Condens. Matter 21 395502 (2009);
         "P. Giannozzi et al., J. Phys.:Condens. Matter 29 465901 (2017);
          URL http://www.quantum-espresso.org", 
     in publications or presentations arising from this work. More details at
     http://www.quantum-espresso.org/quote

     Parallel version (MPI), running on    48 processors

     MPI processes distributed on     1 nodes
     R & G space division:  proc/nbgrp/npool/nimage =      48
     Reading input from Crdimer0.2-0.2.scf.in

     Current dimensions of program PWSCF are:
     Max number of different atomic species (ntypx) = 10
     Max number of k-points (npk) =  40000
     Max angular momentum in pseudopotentials (lmaxx) =  3
     file N.pbe-n-kjpaw_psl.1.0.0.UPF: wavefunction(s)  2S renormalized
     file Cr.pbe-spn-kjpaw_psl.1.0.0.UPF: wavefunction(s)  3S 3P 3D renormalized
     file Cr.pbe-spn-kjpaw_psl.1.0.0.UPF: wavefunction(s)  3S 3P 3D renormalized

     --------------------------------------------
     Parameters for DFT-D3 Dispersion Correction:
     --------------------------------------------
       Reference C6 values for interpolation: 

         atom   Coordination number   C6
         B          0.000           214.36
         B          0.971           150.74
         B          1.944           106.23
         B          2.913            62.89
         B          4.586            56.06
         N          0.000            50.54
         N          0.994            44.25
         N          2.014            39.35
         N          2.990            31.16
         Cr1        0.000          1381.48
         Cr1        1.827           571.38
         Cr1       10.619           306.69
         Cr2        0.000          1381.48
         Cr2        1.827           571.38
         Cr2       10.619           306.69

       Values used:

         atom   Coordination number  R0_AB[au]  C6      C8
         B          3.344            3.039     62.89   2505.80
         B          3.335            3.039     62.89   2506.01
         B          3.339            3.039     62.89   2505.91
         B          3.336            3.039     62.89   2505.98
         B          3.366            3.039     62.87   2505.17
         B          3.335            3.039     62.89   2506.00
         N          3.135            2.478     31.22    688.69
         N          3.134            2.478     31.22    688.69
         N          3.147            2.478     31.21    688.58
         N          3.138            2.478     31.22    688.66
         N          3.139            2.478     31.22    688.65
         N          3.134            2.478     31.22    688.70
         N          3.147            2.478     31.21    688.58
         N          3.134            2.478     31.22    688.70
         N          3.134            2.478     31.22    688.69
         B          3.337            3.039     62.89   2505.96
         B          3.335            3.039     62.89   2506.01
         B          3.335            3.039     62.89   2506.00
         B          3.366            3.039     62.87   2505.17
         B          3.344            3.039     62.89   2505.80
         B          3.337            3.039     62.89   2505.96
         N          3.147            2.478     31.21    688.58
         B          3.336            3.039     62.89   2506.00
         B          3.337            3.039     62.89   2505.98
         B          3.343            3.039     62.89   2505.80
         N          3.134            2.478     31.22    688.70
         N          3.134            2.478     31.22    688.69
         N          3.135            2.478     31.22    688.69
         N          3.135            2.478     31.22    688.69
         N          3.147            2.478     31.21    688.58
         N          3.138            2.478     31.22    688.66
         B          3.343            3.039     62.89   2505.80
         Cr1        0.108            3.252   1381.48 127494.70
         Cr2        0.108            3.252   1381.48 127494.70

         Molecular C6 ( Ry / a.u.^6 ) =     79164.76


     Subspace diagonalization in iterative solution of the eigenvalue problem:
     one sub-group per band group will be used
     scalapack distributed-memory algorithm (size of sub-group:  6*  6 procs)

 
     Parallelization info
     --------------------
     sticks:   dense  smooth     PW     G-vecs:    dense   smooth      PW
     Min         235      98     26                36277     9874    1408
     Max         236      99     27                36282     9883    1425
     Sum       11311    4741   1285              1741401   474235   68095
 


     bravais-lattice index     =            4
     lattice parameter (alat)  =      18.9275  a.u.
     unit-cell volume          =   10553.3021 (a.u.)^3
     number of atoms/cell      =           34
     number of atomic types    =            4
     number of electrons       =       156.00
     number of Kohn-Sham states=           94
     kinetic-energy cutoff     =      48.0000  Ry
     charge density cutoff     =     457.0000  Ry
     scf convergence threshold =      1.0E-07
     mixing beta               =       0.5000
     number of iterations used =            8  plain     mixing
     Exchange-correlation= SLA  PW   PBX  PBC
                           (   1   4   3   4   0   0   0)

     celldm(1)=  18.927497  celldm(2)=   0.000000  celldm(3)=   1.797125
     celldm(4)=   0.000000  celldm(5)=   0.000000  celldm(6)=   0.000000

     crystal axes: (cart. coord. in units of alat)
               a(1) = (   1.000000   0.000000   0.000000 )  
               a(2) = (  -0.500000   0.866025   0.000000 )  
               a(3) = (   0.000000   0.000000   1.797125 )  

     reciprocal axes: (cart. coord. in units 2 pi/alat)
               b(1) = (  1.000000  0.577350  0.000000 )  
               b(2) = (  0.000000  1.154701  0.000000 )  
               b(3) = (  0.000000  0.000000  0.556444 )  


     PseudoPot. # 1 for B  read from file:
     /home/sf05/q-e-qe-6.7MaX-Release/pseudo/B.pbe-n-kjpaw_psl.1.0.0.UPF
     MD5 check sum: d9c678ba5d3b2fd7b74e61139c9288d8
     Pseudo is Projector augmented-wave + core cor, Zval =  3.0
     Generated using "atomic" code by A. Dal Corso  v.5.1.2
     Shape of augmentation charge: PSQ
     Using radial grid of 1059 points,  4 beta functions with: 
                l(1) =   0
                l(2) =   0
                l(3) =   1
                l(4) =   1
     Q(r) pseudized with 0 coefficients 


     PseudoPot. # 2 for N  read from file:
     /home/sf05/q-e-qe-6.7MaX-Release/pseudo/N.pbe-n-kjpaw_psl.1.0.0.UPF
     MD5 check sum: e0e4e94a9c4025c5b51bd7d8793849bd
     Pseudo is Projector augmented-wave + core cor, Zval =  5.0
     Generated using "atomic" code by A. Dal Corso  v.5.1.2
     Shape of augmentation charge: PSQ
     Using radial grid of 1085 points,  4 beta functions with: 
                l(1) =   0
                l(2) =   0
                l(3) =   1
                l(4) =   1
     Q(r) pseudized with 0 coefficients 


     PseudoPot. # 3 for Cr read from file:
     /home/sf05/q-e-qe-6.7MaX-Release/pseudo/Cr.pbe-spn-kjpaw_psl.1.0.0.UPF
     MD5 check sum: 198f1a2427a48552563eee314eba32ba
     Pseudo is Projector augmented-wave + core cor, Zval = 14.0
     Generated using &quot;atomic&quot; code by A. Dal Corso  v.6.3
     Shape of augmentation charge: PSQ
     Using radial grid of 1183 points,  6 beta functions with: 
                l(1) =   0
                l(2) =   0
                l(3) =   1
                l(4) =   1
                l(5) =   2
                l(6) =   2
     Q(r) pseudized with 0 coefficients 


     PseudoPot. # 4 for Cr read from file:
     /home/sf05/q-e-qe-6.7MaX-Release/pseudo/Cr.pbe-spn-kjpaw_psl.1.0.0.UPF
     MD5 check sum: 198f1a2427a48552563eee314eba32ba
     Pseudo is Projector augmented-wave + core cor, Zval = 14.0
     Generated using &quot;atomic&quot; code by A. Dal Corso  v.6.3
     Shape of augmentation charge: PSQ
     Using radial grid of 1183 points,  6 beta functions with: 
                l(1) =   0
                l(2) =   0
                l(3) =   1
                l(4) =   1
                l(5) =   2
                l(6) =   2
     Q(r) pseudized with 0 coefficients 


     atomic species   valence    mass     pseudopotential
        B              3.00    10.81100     B ( 1.00)
        N              5.00    14.00674     N ( 1.00)
        Cr1           14.00    51.99610     Cr( 1.00)
        Cr2           14.00    51.99610     Cr( 1.00)

     Starting magnetic structure 
     atomic species   magnetization
        B            0.000
        N            0.000
        Cr1          1.000
        Cr2          1.000

     No symmetry found



   Cartesian axes

     site n.     atom                  positions (alat units)
         1           B   tau(   1) = (  -0.1250000   0.2165064   0.8985623  )
         2           B   tau(   2) = (   0.3750000   0.6495191   0.8985623  )
         3           B   tau(   3) = (   0.2500000   0.0000000   0.8985623  )
         4           B   tau(   4) = (   0.7500000   0.0000000   0.8985623  )
         5           B   tau(   5) = (   0.1250000   0.2165064   0.8985623  )
         6           B   tau(   6) = (  -0.3750000   0.6495191   0.8985623  )
         7           N   tau(   7) = (   0.7500005   0.2886748   0.8985623  )
         8           N   tau(   8) = (   0.3750005   0.5051812   0.8985623  )
         9           N   tau(   9) = (   0.3750005   0.0721685   0.8985623  )
        10           N   tau(  10) = (   0.6250005   0.0721685   0.8985623  )
        11           N   tau(  11) = (   0.2500005   0.2886748   0.8985623  )
        12           N   tau(  12) = (   0.6250005   0.5051812   0.8985623  )
        13           N   tau(  13) = (   0.0000005   0.2886748   0.8985623  )
        14           N   tau(  14) = (   0.2500005   0.7216875   0.8985623  )
        15           N   tau(  15) = (  -0.2499995   0.7216875   0.8985623  )
        16           B   tau(  16) = (   0.0000000   0.4330127   0.8985623  )
        17           B   tau(  17) = (   0.1250000   0.6495191   0.8985623  )
        18           B   tau(  18) = (  -0.1250000   0.6495191   0.8985623  )
        19           B   tau(  19) = (   0.3750000   0.2165064   0.8985623  )
        20           B   tau(  20) = (   0.6250000   0.2165064   0.8985623  )
        21           B   tau(  21) = (   0.5000000   0.4330127   0.8985623  )
        22           N   tau(  22) = (   0.5000005   0.2886748   0.8985623  )
        23           B   tau(  23) = (  -0.2500000   0.4330127   0.8985623  )
        24           B   tau(  24) = (   0.2500000   0.4330127   0.8985623  )
        25           B   tau(  25) = (   0.5000000   0.0000000   0.8985623  )
        26           N   tau(  26) = (  -0.1249995   0.5051812   0.8985623  )
        27           N   tau(  27) = (   0.1250005   0.5051812   0.8985623  )
        28           N   tau(  28) = (   0.0000005   0.7216875   0.8985623  )
        29           N   tau(  29) = (   0.5000005   0.7216875   0.8985623  )
        30           N   tau(  30) = (   0.1250005   0.0721685   0.8985623  )
        31           N   tau(  31) = (   0.8750005   0.0721685   0.8985623  )
        32           B   tau(  32) = (   0.0000000   0.0000000   0.8985623  )
        33           Cr1 tau(  33) = (   0.4500000   0.1732051   1.2040735  )
        34           Cr2 tau(  34) = (   0.0500000   0.1732051   1.2040735  )

     number of k points=    15  Gaussian smearing, width (Ry)=  0.0000
                       cart. coord. in units 2pi/alat
        k(    1) = (   0.1666667   0.2886751   0.0000000), wk =   0.0740741
        k(    2) = (   0.1666667  -0.4811252   0.0000000), wk =   0.0740741
        k(    3) = (   0.1666667  -0.0962250   0.0000000), wk =   0.0740741
        k(    4) = (  -0.5000000  -0.8660254   0.0000000), wk =   0.0370370
        k(    5) = (  -0.1666667   0.2886751   0.0000000), wk =   0.0740741
        k(    6) = (   0.3333333   0.0000000   0.0000000), wk =   0.0740741
        k(    7) = (  -0.1666667  -0.4811252   0.0000000), wk =   0.0740741
        k(    8) = (   0.5000000  -0.0962250   0.0000000), wk =   0.0740741
        k(    9) = (  -0.3333333  -0.3849002   0.0000000), wk =   0.0740741
        k(   10) = (   0.5000000   0.0962250   0.0000000), wk =   0.0740741
        k(   11) = (  -0.3333333   0.3849002   0.0000000), wk =   0.0740741
        k(   12) = (  -0.1666667  -0.0962250   0.0000000), wk =   0.0740741
        k(   13) = (  -0.0000000  -0.1924501   0.0000000), wk =   0.0740741
        k(   14) = (   0.5000000  -0.8660254   0.0000000), wk =   0.0370370
        k(   15) = (  -1.0000000   0.0000000   0.0000000), wk =   0.0370370

     Dense  grid:  1741401 G-vectors     FFT dimensions: ( 135, 135, 240)

     Smooth grid:   474235 G-vectors     FFT dimensions: (  90,  90, 160)

     Estimated max dynamical RAM per process >     218.62 MB

     Estimated total dynamical RAM >      10.25 GB
     Generating pointlists ...
     new r_m :   0.0595 (alat units)  1.1269 (a.u.) for type    1
     new r_m :   0.0595 (alat units)  1.1269 (a.u.) for type    2
     new r_m :   0.1310 (alat units)  2.4793 (a.u.) for type    3
     new r_m :   0.1310 (alat units)  2.4793 (a.u.) for type    4

     Initial potential from superposition of free atoms

     starting charge  155.99382, renormalised to  156.00000

     negative rho (up, down):  6.559E-03 4.655E-04
     Starting wfcs are  148 randomized atomic wfcs
     Checking if some PAW data can be deallocated... 

     total cpu time spent up to now is       20.1 secs

     Self-consistent Calculation

     iteration #  1     ecut=    48.00 Ry     beta= 0.50
     Davidson diagonalization with overlap
     ethr =  1.00E-02,  avg # of iterations =  2.8

     negative rho (up, down):  4.736E-03 2.949E-03

     total cpu time spent up to now is       59.9 secs

     total energy              =   -1130.76558724 Ry
     estimated scf accuracy    <      11.37415470 Ry

     total magnetization       =    12.00 Bohr mag/cell
     absolute magnetization    =    12.15 Bohr mag/cell

     iteration #  2     ecut=    48.00 Ry     beta= 0.50
     Davidson diagonalization with overlap
     ethr =  7.29E-03,  avg # of iterations =  2.6

     negative rho (up, down):  7.233E-03 9.393E-03

     total cpu time spent up to now is       96.9 secs

     total energy              =   -1133.07942831 Ry
     estimated scf accuracy    <       3.23024425 Ry

     total magnetization       =    11.78 Bohr mag/cell
     absolute magnetization    =    11.78 Bohr mag/cell

     iteration #  3     ecut=    48.00 Ry     beta= 0.50
     Davidson diagonalization with overlap
     ethr =  2.07E-03,  avg # of iterations =  7.0

     negative rho (up, down):  3.386E-03 4.946E-03

     total cpu time spent up to now is      134.1 secs

     total energy              =   -1133.62288931 Ry
     estimated scf accuracy    <       0.65604304 Ry

     total magnetization       =    12.00 Bohr mag/cell
     absolute magnetization    =    12.05 Bohr mag/cell

     iteration #  4     ecut=    48.00 Ry     beta= 0.50
     Davidson diagonalization with overlap
     ethr =  4.21E-04,  avg # of iterations =  7.0

     negative rho (up, down):  6.887E-03 1.359E-02

     total cpu time spent up to now is      170.8 secs

     total energy              =   -1133.79855587 Ry
     estimated scf accuracy    <       0.26923766 Ry

     total magnetization       =    12.00 Bohr mag/cell
     absolute magnetization    =    12.00 Bohr mag/cell

     iteration #  5     ecut=    48.00 Ry     beta= 0.50
     Davidson diagonalization with overlap
     c_bands:  1 eigenvalues not converged
     ethr =  1.73E-04,  avg # of iterations =  9.0

     negative rho (up, down):  4.555E-03 9.898E-03

     total cpu time spent up to now is      209.2 secs

     total energy              =   -1133.81010621 Ry
     estimated scf accuracy    <       0.02052703 Ry

     total magnetization       =    12.00 Bohr mag/cell
     absolute magnetization    =    12.00 Bohr mag/cell

     iteration #  6     ecut=    48.00 Ry     beta= 0.50
     Davidson diagonalization with overlap
     c_bands:  1 eigenvalues not converged
     c_bands:  1 eigenvalues not converged
     c_bands:  5 eigenvalues not converged
     c_bands:  3 eigenvalues not converged
     c_bands:  2 eigenvalues not converged
     c_bands:  3 eigenvalues not converged
     c_bands:  1 eigenvalues not converged
     c_bands:  2 eigenvalues not converged
     c_bands:  1 eigenvalues not converged
     c_bands:  1 eigenvalues not converged
     c_bands:  1 eigenvalues not converged
     ethr =  1.32E-05,  avg # of iterations = 14.0

     negative rho (up, down):  3.383E-03 7.817E-03

     total cpu time spent up to now is      265.1 secs

     total energy              =   -1133.81448364 Ry
     estimated scf accuracy    <       0.00275390 Ry

     total magnetization       =    12.00 Bohr mag/cell
     absolute magnetization    =    12.01 Bohr mag/cell

     iteration #  7     ecut=    48.00 Ry     beta= 0.50
     Davidson diagonalization with overlap
     c_bands:  1 eigenvalues not converged
     c_bands:  1 eigenvalues not converged
     c_bands:  1 eigenvalues not converged
     c_bands:  3 eigenvalues not converged
     c_bands:  1 eigenvalues not converged
     c_bands:  3 eigenvalues not converged
     c_bands:  1 eigenvalues not converged
     ethr =  1.77E-06,  avg # of iterations = 11.2

     negative rho (up, down):  3.028E-03 7.446E-03

     total cpu time spent up to now is      311.4 secs

     total energy              =   -1133.81526399 Ry
     estimated scf accuracy    <       0.00054331 Ry

     total magnetization       =    12.00 Bohr mag/cell
     absolute magnetization    =    12.00 Bohr mag/cell

     iteration #  8     ecut=    48.00 Ry     beta= 0.50
     Davidson diagonalization with overlap
     c_bands:  1 eigenvalues not converged
     ethr =  3.48E-07,  avg # of iterations =  8.2

     negative rho (up, down):  2.905E-03 7.301E-03

     total cpu time spent up to now is      349.2 secs

     total energy              =   -1133.81547142 Ry
     estimated scf accuracy    <       0.00008914 Ry

     total magnetization       =    12.00 Bohr mag/cell
     absolute magnetization    =    12.00 Bohr mag/cell

     iteration #  9     ecut=    48.00 Ry     beta= 0.50
     Davidson diagonalization with overlap
     c_bands:  1 eigenvalues not converged
     ethr =  5.71E-08,  avg # of iterations =  3.2

     negative rho (up, down):  2.867E-03 7.287E-03

     total cpu time spent up to now is      384.4 secs

     total energy              =   -1133.81556164 Ry
     estimated scf accuracy    <       0.00000520 Ry

     total magnetization       =    12.00 Bohr mag/cell
     absolute magnetization    =    12.00 Bohr mag/cell

     iteration # 10     ecut=    48.00 Ry     beta= 0.50
     Davidson diagonalization with overlap
     ethr =  3.33E-09,  avg # of iterations =  4.8

     negative rho (up, down):  2.857E-03 7.287E-03

     total cpu time spent up to now is      427.5 secs

     total energy              =   -1133.81558913 Ry
     estimated scf accuracy    <       0.00000438 Ry

     total magnetization       =    12.00 Bohr mag/cell
     absolute magnetization    =    12.00 Bohr mag/cell

     iteration # 11     ecut=    48.00 Ry     beta= 0.50
     Davidson diagonalization with overlap
     ethr =  2.81E-09,  avg # of iterations =  2.0

     negative rho (up, down):  2.853E-03 7.292E-03

     total cpu time spent up to now is      463.3 secs

     total energy              =   -1133.81560791 Ry
     estimated scf accuracy    <       0.00000024 Ry

     total magnetization       =    12.00 Bohr mag/cell
     absolute magnetization    =    12.00 Bohr mag/cell

     iteration # 12     ecut=    48.00 Ry     beta= 0.50
     Davidson diagonalization with overlap
     ethr =  1.51E-10,  avg # of iterations =  3.9

     negative rho (up, down):  2.851E-03 7.297E-03
 
     Magnetic moment per site:
     atom:    1    charge:    0.8803    magn:    0.0002    constr:    0.0000
     atom:    2    charge:    0.8803    magn:    0.0001    constr:    0.0000
     atom:    3    charge:    0.8804    magn:    0.0014    constr:    0.0000
     atom:    4    charge:    0.8803    magn:    0.0008    constr:    0.0000
     atom:    5    charge:    0.8809    magn:    0.0004    constr:    0.0000
     atom:    6    charge:    0.8803    magn:    0.0001    constr:    0.0000
     atom:    7    charge:    2.8609    magn:    0.0016    constr:    0.0000
     atom:    8    charge:    2.8609    magn:    0.0006    constr:    0.0000
     atom:    9    charge:    2.8606    magn:    0.0090    constr:    0.0000
     atom:   10    charge:    2.8607    magn:    0.0041    constr:    0.0000
     atom:   11    charge:    2.8607    magn:    0.0072    constr:    0.0000
     atom:   12    charge:    2.8609    magn:    0.0003    constr:    0.0000
     atom:   13    charge:    2.8596    magn:    0.0084    constr:    0.0000
     atom:   14    charge:    2.8598    magn:    0.0003    constr:    0.0000
     atom:   15    charge:    2.8598    magn:    0.0005    constr:    0.0000
     atom:   16    charge:    0.8801    magn:    0.0008    constr:    0.0000
     atom:   17    charge:    0.8800    magn:    0.0001    constr:    0.0000
     atom:   18    charge:    0.8800    magn:    0.0001    constr:    0.0000
     atom:   19    charge:    0.8803    magn:    0.0004    constr:    0.0000
     atom:   20    charge:    0.8797    magn:    0.0002    constr:    0.0000
     atom:   21    charge:    0.8798    magn:    0.0008    constr:    0.0000
     atom:   22    charge:    2.8609    magn:    0.0084    constr:    0.0000
     atom:   23    charge:    0.8799    magn:    0.0002    constr:    0.0000
     atom:   24    charge:    0.8799    magn:    0.0003    constr:    0.0000
     atom:   25    charge:    0.8800    magn:    0.0002    constr:    0.0000
     atom:   26    charge:    2.8598    magn:    0.0003    constr:    0.0000
     atom:   27    charge:    2.8598    magn:    0.0006    constr:    0.0000
     atom:   28    charge:    2.8598    magn:    0.0009    constr:    0.0000
     atom:   29    charge:    2.8596    magn:    0.0009    constr:    0.0000
     atom:   30    charge:    2.8593    magn:    0.0090    constr:    0.0000
     atom:   31    charge:    2.8594    magn:    0.0042    constr:    0.0000
     atom:   32    charge:    0.8803    magn:    0.0002    constr:    0.0000
     atom:   33    charge:   12.8544    magn:    4.8421    constr:    0.0000
     atom:   34    charge:   12.8544    magn:    4.8421    constr:    0.0000

     total cpu time spent up to now is      497.3 secs

     End of self-consistent calculation

 ------ SPIN UP ------------


          k = 0.1667 0.2887 0.0000 ( 59267 PWs)   bands (ev):

   -72.5001 -72.4999 -43.9658 -43.9647 -43.9578 -43.9576 -43.9538 -43.9536
   -21.2686 -20.6888 -20.6708 -20.1300 -20.1141 -19.6160 -19.5977 -19.1214
   -18.7245 -18.7077 -18.4826 -18.4687 -18.2172 -18.1098 -18.0964 -17.8711
   -12.5052 -12.2304 -12.2205 -11.8442 -11.8370 -11.6794 -11.2179 -11.2054
   -10.4132 -10.3890 -10.1429 -10.1324  -9.6122  -9.6072  -8.8607  -8.8477
    -8.8418  -8.7934  -8.7772  -8.6177  -8.2184  -8.0775  -8.0346  -7.8514
    -7.8471  -7.4619  -7.4563  -7.3144  -7.2695  -7.2321  -7.2247  -6.9850
    -6.9732  -6.5945  -6.5534  -6.1759  -6.1731  -5.8941  -5.4399  -5.3213
    -5.2912  -5.2214  -4.9455  -4.9107  -4.5287  -4.3793  -4.3602  -4.0004
    -2.5142  -1.5553  -1.4940  -1.4846  -1.4677  -1.3966  -1.3841  -1.3817
    -1.3483  -1.3258  -1.3141  -1.1919   0.5902   0.7619   0.9945   1.1417
     1.2528   1.4303   1.4879   1.5486   1.5753   1.6836

          k = 0.1667-0.4811 0.0000 ( 59291 PWs)   bands (ev):

   -72.5001 -72.4999 -43.9658 -43.9647 -43.9579 -43.9576 -43.9538 -43.9536
   -21.1383 -20.9343 -20.7439 -20.1822 -19.8260 -19.4886 -19.3389 -19.1959
   -19.0365 -18.8007 -18.6618 -18.5661 -18.1708 -18.1114 -17.9433 -17.7454
   -12.3692 -12.1347 -12.0658 -11.9280 -11.7039 -11.6776 -11.5740 -10.9635
   -10.9111 -10.6446 -10.5446  -9.8814  -9.7144  -9.3575  -9.1322  -8.6900
    -8.6443  -8.5742  -8.4106  -8.3902  -8.1825  -8.1450  -8.0862  -8.0694
    -7.7092  -7.6445  -7.5160  -7.4945  -7.3776  -7.1922  -7.0891  -6.8821
    -6.6434  -6.4121  -6.1991  -6.1791  -5.9935  -5.9505  -5.8048  -5.7679
    -5.4727  -5.4211  -5.2281  -5.0633  -4.4654  -4.3702  -4.1108  -3.7879
    -2.5075  -1.5606  -1.4922  -1.4846  -1.4665  -1.3937  -1.3855  -1.3824
    -1.3498  -1.3262  -1.3136  -1.1930   0.5750   0.6299   1.0280   1.0703
     1.1939   1.2339   1.3657   1.7716   1.8463   1.9045

          k = 0.1667-0.0962 0.0000 ( 59226 PWs)   bands (ev):

   -72.5001 -72.4999 -43.9658 -43.9646 -43.9578 -43.9576 -43.9538 -43.9536
   -21.3351 -20.5574 -20.3665 -20.3614 -20.0109 -20.0012 -19.8272 -18.7519
   -18.7434 -18.4003 -18.3880 -18.3773 -18.2939 -18.2779 -18.0982 -18.0934
   -12.5311 -12.5211 -12.4294 -11.6024 -11.5975 -11.4515 -11.4378 -10.9473
   -10.9451  -9.9507  -9.9474  -9.6970  -9.3992  -9.3905  -9.2518  -9.2493
    -9.0634  -9.0613  -8.9458  -8.3452  -8.3426  -7.9237  -7.9192  -7.9034
    -7.8667  -7.7916  -7.6259  -7.6109  -7.1520  -7.1174  -6.9805  -6.9096
    -6.9062  -6.8724  -6.5525  -6.5493  -6.2787  -5.3670  -5.3435  -5.1645
    -5.0866  -4.8368  -4.8157  -4.7729  -4.6509  -4.6111  -4.3701  -4.3570
    -2.5211  -1.5500  -1.4959  -1.4850  -1.4686  -1.4004  -1.3829  -1.3811
    -1.3469  -1.3254  -1.3147  -1.1908   0.6079   0.9158   0.9390   1.1527
     1.2313   1.3090   1.4897   1.5650   1.6200   1.6572

          k =-0.5000-0.8660 0.0000 ( 59292 PWs)   bands (ev):

   -72.5001 -72.4999 -43.9659 -43.9647 -43.9579 -43.9576 -43.9537 -43.9536
   -21.0799 -21.0598 -20.4911 -20.4857 -19.4534 -19.4408 -19.4345 -19.4278
   -19.0200 -19.0042 -18.3575 -18.3479 -18.3379 -18.3196 -17.8155 -17.8099
   -12.1000 -12.0922 -12.0834 -12.0699 -11.9000 -11.8934 -11.3557 -11.3433
   -10.2579 -10.2529 -10.1567 -10.1525 -10.1511 -10.1469  -8.6159  -8.5754
    -8.5732  -8.5644  -8.5600  -8.5541  -7.8856  -7.8843  -7.8821  -7.8792
    -7.8439  -7.8402  -7.7975  -7.7823  -7.5173  -7.5014  -6.6337  -6.6276
    -6.3873  -6.3477  -6.3289  -6.3142  -6.2156  -6.2045  -5.7384  -5.7128
    -5.5726  -5.5573  -4.7575  -4.7424  -4.7341  -4.6881  -3.9056  -3.8925
    -2.4513  -1.6567  -1.4900  -1.4780  -1.4583  -1.3936  -1.3902  -1.3803
    -1.3564  -1.3355  -1.3238  -1.2839   0.8887   1.0317   1.0553   1.1857
     1.2203   1.3471   1.4706   1.5739   1.6157   1.6450

          k =-0.1667 0.2887 0.0000 ( 59267 PWs)   bands (ev):

   -72.5001 -72.4999 -43.9658 -43.9647 -43.9578 -43.9576 -43.9538 -43.9536
   -21.2687 -20.6888 -20.6709 -20.1300 -20.1141 -19.6159 -19.5977 -19.1214
   -18.7244 -18.7078 -18.4826 -18.4687 -18.2172 -18.1097 -18.0964 -17.8711
   -12.5052 -12.2304 -12.2205 -11.8442 -11.8370 -11.6795 -11.2178 -11.2054
   -10.4133 -10.3889 -10.1429 -10.1325  -9.6121  -9.6072  -8.8607  -8.8477
    -8.8417  -8.7934  -8.7773  -8.6176  -8.2184  -8.0775  -8.0347  -7.8514
    -7.8470  -7.4620  -7.4563  -7.3144  -7.2695  -7.2320  -7.2247  -6.9851
    -6.9733  -6.5945  -6.5534  -6.1759  -6.1732  -5.8941  -5.4400  -5.3213
    -5.2913  -5.2213  -4.9455  -4.9106  -4.5288  -4.3793  -4.3603  -4.0004
    -2.5142  -1.5553  -1.4940  -1.4846  -1.4677  -1.3966  -1.3841  -1.3816
    -1.3483  -1.3258  -1.3141  -1.1919   0.5902   0.7619   0.9945   1.1418
     1.2528   1.4303   1.4879   1.5486   1.5753   1.6838

          k = 0.3333 0.0000 0.0000 ( 59267 PWs)   bands (ev):

   -72.5001 -72.4999 -43.9659 -43.9646 -43.9578 -43.9576 -43.9538 -43.9536
   -21.2683 -20.7063 -20.6532 -20.1237 -20.1192 -19.6336 -19.5816 -19.1229
   -18.7355 -18.6928 -18.4782 -18.4749 -18.2133 -18.1269 -18.0844 -17.8705
   -12.5052 -12.2265 -12.2241 -11.8501 -11.8329 -11.6777 -11.2304 -11.1936
   -10.4120 -10.3892 -10.1508 -10.1246  -9.6165  -9.6021  -8.8673  -8.8448
    -8.8367  -8.8075  -8.7635  -8.6184  -8.2198  -8.1227  -7.9887  -7.8491
    -7.8476  -7.4658  -7.4521  -7.3096  -7.2707  -7.2386  -7.2181  -6.9809
    -6.9785  -6.6376  -6.5165  -6.1778  -6.1705  -5.8984  -5.4396  -5.3273
    -5.2775  -5.2217  -4.9384  -4.9208  -4.5205  -4.3996  -4.3491  -3.9998
    -2.4793  -1.6132  -1.4920  -1.4807  -1.4622  -1.3979  -1.3862  -1.3805
    -1.3519  -1.3317  -1.3213  -1.2608   0.9319   0.9805   0.9886   1.1845
     1.2456   1.3611   1.4601   1.5005   1.5611   1.6047

          k =-0.1667-0.4811 0.0000 ( 59291 PWs)   bands (ev):

   -72.5001 -72.4999 -43.9658 -43.9647 -43.9579 -43.9576 -43.9538 -43.9536
   -21.1383 -20.9343 -20.7439 -20.1822 -19.8260 -19.4886 -19.3389 -19.1959
   -19.0365 -18.8007 -18.6618 -18.5661 -18.1708 -18.1114 -17.9433 -17.7454
   -12.3693 -12.1347 -12.0658 -11.9280 -11.7039 -11.6776 -11.5740 -10.9635
   -10.9111 -10.6446 -10.5446  -9.8814  -9.7144  -9.3575  -9.1323  -8.6900
    -8.6443  -8.5742  -8.4106  -8.3902  -8.1824  -8.1450  -8.0863  -8.0694
    -7.7092  -7.6445  -7.5160  -7.4945  -7.3776  -7.1922  -7.0891  -6.8821
    -6.6435  -6.4121  -6.1991  -6.1792  -5.9935  -5.9505  -5.8048  -5.7679
    -5.4727  -5.4211  -5.2281  -5.0633  -4.4654  -4.3702  -4.1108  -3.7879
    -2.5075  -1.5606  -1.4922  -1.4846  -1.4665  -1.3937  -1.3855  -1.3824
    -1.3498  -1.3262  -1.3136  -1.1930   0.5750   0.6299   1.0280   1.0703
     1.1938   1.2339   1.3657   1.7716   1.8464   1.9048

          k = 0.5000-0.0962 0.0000 ( 59291 PWs)   bands (ev):

   -72.5001 -72.4999 -43.9659 -43.9646 -43.9579 -43.9576 -43.9538 -43.9536
   -21.1360 -20.9406 -20.7398 -20.1807 -19.8264 -19.4897 -19.3442 -19.1917
   -19.0373 -18.8008 -18.6539 -18.5714 -18.1612 -18.1246 -17.9407 -17.7452
   -12.3687 -12.1350 -12.0640 -11.9312 -11.7131 -11.6662 -11.5760 -10.9637
   -10.9094 -10.6432 -10.5465  -9.8795  -9.7151  -9.3584  -9.1318  -8.6805
    -8.6447  -8.5725  -8.4195  -8.4134  -8.1806  -8.1257  -8.0966  -8.0601
    -7.7061  -7.6450  -7.5152  -7.4955  -7.3722  -7.1935  -7.0897  -6.8833
    -6.6437  -6.4177  -6.2161  -6.1787  -5.9795  -5.9498  -5.8042  -5.7694
    -5.4737  -5.4182  -5.2100  -5.0774  -4.4462  -4.3942  -4.1068  -3.7882
    -2.4515  -1.6566  -1.4899  -1.4781  -1.4583  -1.3949  -1.3896  -1.3803
    -1.3563  -1.3355  -1.3238  -1.2839   0.8563   1.0207   1.0581   1.1328
     1.2239   1.3243   1.3798   1.4748   1.6399   1.8059

          k =-0.3333-0.3849 0.0000 ( 59291 PWs)   bands (ev):

   -72.5001 -72.4999 -43.9659 -43.9646 -43.9579 -43.9576 -43.9538 -43.9536
   -21.1368 -20.9384 -20.7413 -20.1806 -19.8277 -19.4884 -19.3401 -19.1944
   -19.0397 -18.7995 -18.6551 -18.5705 -18.1630 -18.1225 -17.9408 -17.7454
   -12.3689 -12.1337 -12.0659 -11.9304 -11.7044 -11.6760 -11.5750 -10.9635
   -10.9091 -10.6427 -10.5473  -9.8802  -9.7151  -9.3579  -9.1322  -8.6834
    -8.6437  -8.5744  -8.4123  -8.4081  -8.1821  -8.1326  -8.0867  -8.0708
    -7.7065  -7.6435  -7.5210  -7.4904  -7.3717  -7.1936  -7.0901  -6.8886
    -6.6419  -6.4116  -6.2027  -6.1806  -5.9898  -5.9490  -5.8044  -5.7776
    -5.4735  -5.4145  -5.2095  -5.0775  -4.4484  -4.3926  -4.1062  -3.7883
    -2.4716  -1.6198  -1.4907  -1.4802  -1.4618  -1.3939  -1.3883  -1.3811
    -1.3538  -1.3321  -1.3205  -1.2614   0.7545   0.9132   1.0571   1.0873
     1.1771   1.2863   1.3582   1.5414   1.7546   1.8517

          k = 0.5000 0.0962 0.0000 ( 59291 PWs)   bands (ev):

   -72.5001 -72.4999 -43.9659 -43.9646 -43.9579 -43.9576 -43.9538 -43.9536
   -21.1360 -20.9406 -20.7398 -20.1807 -19.8264 -19.4897 -19.3442 -19.1917
   -19.0373 -18.8008 -18.6539 -18.5714 -18.1612 -18.1247 -17.9407 -17.7452
   -12.3687 -12.1350 -12.0640 -11.9312 -11.7131 -11.6662 -11.5760 -10.9637
   -10.9094 -10.6433 -10.5465  -9.8795  -9.7151  -9.3584  -9.1317  -8.6805
    -8.6447  -8.5725  -8.4195  -8.4134  -8.1806  -8.1257  -8.0965  -8.0601
    -7.7062  -7.6450  -7.5153  -7.4955  -7.3722  -7.1935  -7.0897  -6.8833
    -6.6436  -6.4177  -6.2161  -6.1786  -5.9795  -5.9498  -5.8043  -5.7694
    -5.4738  -5.4182  -5.2100  -5.0774  -4.4462  -4.3942  -4.1069  -3.7882
    -2.4515  -1.6566  -1.4899  -1.4781  -1.4583  -1.3949  -1.3896  -1.3803
    -1.3563  -1.3355  -1.3238  -1.2839   0.8563   1.0207   1.0581   1.1329
     1.2239   1.3243   1.3798   1.4748   1.6399   1.8059

          k =-0.3333 0.3849 0.0000 ( 59291 PWs)   bands (ev):

   -72.5001 -72.4999 -43.9659 -43.9646 -43.9579 -43.9576 -43.9538 -43.9536
   -21.1368 -20.9384 -20.7413 -20.1806 -19.8277 -19.4884 -19.3401 -19.1944
   -19.0397 -18.7995 -18.6551 -18.5705 -18.1630 -18.1225 -17.9408 -17.7454
   -12.3689 -12.1337 -12.0659 -11.9304 -11.7043 -11.6760 -11.5750 -10.9635
   -10.9091 -10.6427 -10.5473  -9.8803  -9.7151  -9.3579  -9.1322  -8.6834
    -8.6438  -8.5743  -8.4124  -8.4081  -8.1821  -8.1326  -8.0866  -8.0708
    -7.7065  -7.6435  -7.5210  -7.4904  -7.3717  -7.1936  -7.0902  -6.8886
    -6.6420  -6.4116  -6.2027  -6.1806  -5.9898  -5.9491  -5.8043  -5.7776
    -5.4734  -5.4144  -5.2095  -5.0775  -4.4485  -4.3926  -4.1062  -3.7883
    -2.4716  -1.6198  -1.4907  -1.4802  -1.4618  -1.3939  -1.3883  -1.3811
    -1.3538  -1.3321  -1.3205  -1.2614   0.7545   0.9132   1.0571   1.0873
     1.1771   1.2863   1.3582   1.5414   1.7546   1.8520

          k =-0.1667-0.0962 0.0000 ( 59226 PWs)   bands (ev):

   -72.5001 -72.4999 -43.9659 -43.9646 -43.9578 -43.9576 -43.9538 -43.9536
   -21.3351 -20.5575 -20.3665 -20.3614 -20.0109 -20.0012 -19.8272 -18.7519
   -18.7434 -18.4003 -18.3880 -18.3773 -18.2939 -18.2779 -18.0982 -18.0934
   -12.5311 -12.5211 -12.4294 -11.6024 -11.5975 -11.4515 -11.4378 -10.9473
   -10.9451  -9.9508  -9.9474  -9.6970  -9.3992  -9.3904  -9.2518  -9.2493
    -9.0634  -9.0613  -8.9458  -8.3453  -8.3426  -7.9237  -7.9192  -7.9034
    -7.8666  -7.7917  -7.6259  -7.6109  -7.1520  -7.1174  -6.9806  -6.9095
    -6.9061  -6.8724  -6.5525  -6.5493  -6.2788  -5.3670  -5.3435  -5.1644
    -5.0867  -4.8368  -4.8156  -4.7729  -4.6508  -4.6111  -4.3702  -4.3570
    -2.5211  -1.5500  -1.4959  -1.4850  -1.4686  -1.4004  -1.3829  -1.3811
    -1.3469  -1.3254  -1.3147  -1.1908   0.6079   0.9158   0.9390   1.1526
     1.2313   1.3091   1.4897   1.5650   1.6200   1.6572

          k =-0.0000-0.1925 0.0000 ( 59226 PWs)   bands (ev):

   -72.5001 -72.4999 -43.9658 -43.9646 -43.9578 -43.9576 -43.9538 -43.9536
   -21.3352 -20.5531 -20.3786 -20.3568 -20.0110 -19.9948 -19.8303 -18.7552
   -18.7371 -18.4054 -18.4051 -18.3723 -18.2773 -18.2759 -18.1061 -18.0900
   -12.5274 -12.5252 -12.4290 -11.6079 -11.5935 -11.4448 -11.4418 -10.9498
   -10.9441  -9.9523  -9.9456  -9.6976  -9.3965  -9.3923  -9.2517  -9.2493
    -9.0627  -9.0626  -8.9463  -8.3458  -8.3410  -7.9213  -7.9213  -7.8849
    -7.8650  -7.7929  -7.6718  -7.5966  -7.1450  -7.1001  -6.9793  -6.9119
    -6.9051  -6.8844  -6.5546  -6.5466  -6.2793  -5.3763  -5.3261  -5.1648
    -5.0863  -4.8547  -4.8361  -4.7686  -4.6156  -4.6113  -4.3888  -4.3475
    -2.5365  -1.5288  -1.4971  -1.4868  -1.4708  -1.3997  -1.3827  -1.3811
    -1.3456  -1.3229  -1.3109  -1.1419   0.4555   0.8197   0.9261   1.1254
     1.2276   1.3492   1.4982   1.5903   1.6577   1.7295

          k = 0.5000-0.8660 0.0000 ( 59292 PWs)   bands (ev):

   -72.5001 -72.4999 -43.9659 -43.9647 -43.9579 -43.9576 -43.9537 -43.9536
   -21.0799 -21.0598 -20.4911 -20.4857 -19.4534 -19.4408 -19.4345 -19.4278
   -19.0199 -19.0043 -18.3574 -18.3479 -18.3379 -18.3196 -17.8154 -17.8099
   -12.1000 -12.0921 -12.0835 -12.0700 -11.9000 -11.8933 -11.3557 -11.3433
   -10.2580 -10.2529 -10.1567 -10.1525 -10.1511 -10.1469  -8.6159  -8.5753
    -8.5731  -8.5644  -8.5600  -8.5542  -7.8856  -7.8843  -7.8821  -7.8792
    -7.8440  -7.8402  -7.7975  -7.7823  -7.5173  -7.5014  -6.6337  -6.6275
    -6.3873  -6.3477  -6.3289  -6.3142  -6.2154  -6.2045  -5.7384  -5.7128
    -5.5727  -5.5574  -4.7574  -4.7424  -4.7341  -4.6881  -3.9056  -3.8925
    -2.4513  -1.6567  -1.4900  -1.4780  -1.4583  -1.3936  -1.3902  -1.3803
    -1.3564  -1.3355  -1.3238  -1.2839   0.8887   1.0318   1.0553   1.1857
     1.2203   1.3471   1.4705   1.5739   1.6158   1.6451

          k =-1.0000 0.0000 0.0000 ( 59292 PWs)   bands (ev):

   -72.5001 -72.4999 -43.9659 -43.9647 -43.9579 -43.9576 -43.9537 -43.9536
   -21.0956 -21.0417 -20.5006 -20.4802 -19.4511 -19.4422 -19.4373 -19.4207
   -19.0337 -18.9924 -18.3793 -18.3708 -18.3071 -18.3058 -17.8215 -17.8054
   -12.1165 -12.1082 -12.0611 -12.0563 -11.9056 -11.8887 -11.3703 -11.3306
   -10.2684 -10.2540 -10.1572 -10.1532 -10.1442 -10.1422  -8.6530  -8.5896
    -8.5859  -8.5435  -8.5427  -8.5143  -7.8960  -7.8955  -7.8792  -7.8755
    -7.8462  -7.8349  -7.8204  -7.7648  -7.5332  -7.4873  -6.6348  -6.6247
    -6.3864  -6.3444  -6.3311  -6.2972  -6.2285  -6.1943  -5.7549  -5.7055
    -5.5864  -5.5437  -4.8127  -4.7709  -4.6761  -4.6636  -3.9197  -3.8805
    -2.5236  -1.5383  -1.4931  -1.4867  -1.4680  -1.3934  -1.3843  -1.3828
    -1.3483  -1.3236  -1.3101  -1.1447   0.4439   0.5588   1.0329   1.0631
     1.1818   1.4217   1.5752   1.5971   1.6182   1.9396

 ------ SPIN DOWN ----------


          k = 0.1667 0.2887 0.0000 ( 59267 PWs)   bands (ev):

   -68.1309 -68.1307 -39.6361 -39.6349 -39.6221 -39.6216 -39.6174 -39.6173
   -21.2613 -20.6805 -20.6650 -20.1219 -20.1079 -19.6076 -19.5920 -19.1140
   -18.7148 -18.7013 -18.4746 -18.4623 -18.2081 -18.1024 -18.0911 -17.8638
   -12.5004 -12.2246 -12.2163 -11.8394 -11.8330 -11.6753 -11.2124 -11.2011
   -10.4079 -10.3840 -10.1369 -10.1280  -9.6070  -9.6028  -8.8453  -8.8365
    -8.8295  -8.7879  -8.7736  -8.6131  -8.2140  -8.0475  -8.0155  -7.8467
    -7.8427  -7.4557  -7.4511  -7.2834  -7.2533  -7.2271  -7.2207  -6.9799
    -6.9694  -6.5675  -6.5372  -6.1709  -6.1686  -5.8709  -5.4345  -5.2916
    -5.2716  -5.2165  -4.9209  -4.8950  -4.5037  -4.3591  -4.3452  -3.9808
    -0.3733   0.7226   1.0541   1.1881   1.3497   1.3881   1.4409   1.5088
     1.5524   1.7906   1.9221   2.0908   2.1611   2.2250   2.2764   2.3404
     2.4225   2.4575   2.5086   2.5467   2.5907   2.6049

          k = 0.1667-0.4811 0.0000 ( 59291 PWs)   bands (ev):

   -68.1309 -68.1307 -39.6361 -39.6349 -39.6221 -39.6216 -39.6174 -39.6173
   -21.1303 -20.9281 -20.7368 -20.1749 -19.8190 -19.4813 -19.3317 -19.1885
   -19.0292 -18.7937 -18.6522 -18.5604 -18.1600 -18.1076 -17.9359 -17.7379
   -12.3644 -12.1297 -12.0613 -11.9235 -11.6994 -11.6731 -11.5694 -10.9583
   -10.9057 -10.6391 -10.5401  -9.8758  -9.7098  -9.3522  -9.1274  -8.6574
    -8.6394  -8.5687  -8.4062  -8.3728  -8.1779  -8.1193  -8.0813  -8.0654
    -7.7041  -7.6399  -7.5111  -7.4906  -7.3521  -7.1869  -7.0846  -6.8596
    -6.6377  -6.3894  -6.1771  -6.1739  -5.9712  -5.9448  -5.7998  -5.7458
    -5.4680  -5.3987  -5.1975  -5.0495  -4.4354  -4.3606  -4.0905  -3.7687
    -0.3419   0.6986   1.0050   1.1057   1.1481   1.2758   1.3371   1.7498
     1.8282   1.9029   2.0316   2.0937   2.1889   2.2426   2.2759   2.3325
     2.4071   2.4537   2.4784   2.5078   2.5568   2.6265

          k = 0.1667-0.0962 0.0000 ( 59226 PWs)   bands (ev):

   -68.1309 -68.1307 -39.6361 -39.6349 -39.6221 -39.6216 -39.6174 -39.6173
   -21.3278 -20.5493 -20.3597 -20.3552 -20.0024 -19.9945 -19.8212 -18.7431
   -18.7359 -18.3916 -18.3807 -18.3698 -18.2855 -18.2718 -18.0915 -18.0874
   -12.5255 -12.5171 -12.4246 -11.5977 -11.5934 -11.4458 -11.4338 -10.9423
   -10.9404  -9.9457  -9.9426  -9.6917  -9.3941  -9.3858  -9.2462  -9.2442
    -9.0586  -9.0568  -8.9193  -8.3395  -8.3371  -7.9188  -7.9146  -7.8733
    -7.8587  -7.7873  -7.6034  -7.5932  -7.1200  -7.0982  -6.9757  -6.9049
    -6.9020  -6.8568  -6.5477  -6.5448  -6.2741  -5.3379  -5.3224  -5.1594
    -5.0816  -4.8120  -4.7927  -4.7534  -4.6257  -4.5968  -4.3501  -4.3407
    -0.4030   0.7505   1.0842   1.1056   1.2204   1.4363   1.4986   1.5600
     1.7927   1.8834   1.9558   2.0028   2.0847   2.1295   2.2778   2.3344
     2.4078   2.4405   2.4893   2.5641   2.5797   2.6036

          k =-0.5000-0.8660 0.0000 ( 59292 PWs)   bands (ev):

   -68.1309 -68.1307 -39.6362 -39.6349 -39.6221 -39.6216 -39.6175 -39.6173
   -21.0710 -21.0539 -20.4841 -20.4792 -19.4437 -19.4335 -19.4279 -19.4213
   -19.0116 -18.9987 -18.3479 -18.3386 -18.3307 -18.3156 -17.8079 -17.8030
   -12.0933 -12.0870 -12.0788 -12.0669 -11.8954 -11.8896 -11.3503 -11.3390
   -10.2526 -10.2479 -10.1509 -10.1473 -10.1460 -10.1427  -8.5811  -8.5698
    -8.5671  -8.5575  -8.5512  -8.5425  -7.8806  -7.8794  -7.8772  -7.8749
    -7.8382  -7.8348  -7.7745  -7.7631  -7.5122  -7.4979  -6.6283  -6.6231
    -6.3478  -6.3226  -6.3102  -6.2991  -6.2099  -6.1999  -5.7147  -5.6964
    -5.5668  -5.5534  -4.7308  -4.7169  -4.7119  -4.6779  -3.8847  -3.8748
    -0.2615   0.3939   1.0114   1.0695   1.4234   1.4486   1.5171   1.5528
     1.7328   1.7556   2.0222   2.0529   2.1601   2.2865   2.3418   2.3635
     2.3955   2.4523   2.4888   2.5199   2.5473   2.6395

          k =-0.1667 0.2887 0.0000 ( 59267 PWs)   bands (ev):

   -68.1309 -68.1307 -39.6361 -39.6349 -39.6221 -39.6216 -39.6174 -39.6173
   -21.2613 -20.6805 -20.6650 -20.1219 -20.1079 -19.6076 -19.5921 -19.1140
   -18.7147 -18.7013 -18.4746 -18.4623 -18.2081 -18.1024 -18.0911 -17.8638
   -12.5004 -12.2246 -12.2163 -11.8394 -11.8330 -11.6753 -11.2123 -11.2011
   -10.4079 -10.3840 -10.1369 -10.1280  -9.6070  -9.6028  -8.8453  -8.8365
    -8.8295  -8.7879  -8.7736  -8.6131  -8.2141  -8.0474  -8.0155  -7.8467
    -7.8427  -7.4557  -7.4511  -7.2834  -7.2533  -7.2270  -7.2207  -6.9800
    -6.9695  -6.5675  -6.5372  -6.1709  -6.1686  -5.8709  -5.4346  -5.2916
    -5.2717  -5.2164  -4.9209  -4.8950  -4.5038  -4.3591  -4.3452  -3.9807
    -0.3733   0.7226   1.0541   1.1880   1.3498   1.3881   1.4409   1.5088
     1.5523   1.7906   1.9221   2.0908   2.1611   2.2249   2.2764   2.3403
     2.4226   2.4574   2.5087   2.5467   2.5908   2.6047

          k = 0.3333 0.0000 0.0000 ( 59267 PWs)   bands (ev):

   -68.1309 -68.1307 -39.6362 -39.6349 -39.6221 -39.6216 -39.6174 -39.6173
   -21.2610 -20.6955 -20.6500 -20.1170 -20.1120 -19.6224 -19.5784 -19.1151
   -18.7239 -18.6894 -18.4706 -18.4675 -18.2054 -18.1159 -18.0812 -17.8634
   -12.5004 -12.2215 -12.2192 -11.8449 -11.8290 -11.6739 -11.2237 -11.1904
   -10.4070 -10.3841 -10.1437 -10.1213  -9.6108  -9.5983  -8.8478  -8.8391
    -8.8237  -8.8005  -8.7613  -8.6137  -8.2151  -8.0803  -7.9824  -7.8448
    -7.8432  -7.4588  -7.4478  -7.2795  -7.2550  -7.2329  -7.2149  -6.9762
    -6.9739  -6.5983  -6.5099  -6.1726  -6.1663  -5.8733  -5.4343  -5.2988
    -5.2603  -5.2168  -4.9153  -4.9022  -4.4994  -4.3738  -4.3354  -3.9804
    -0.3306   0.5261   1.0681   1.1641   1.3584   1.4461   1.4968   1.5148
     1.5763   1.7953   2.0183   2.1213   2.2076   2.2168   2.3034   2.3976
     2.4049   2.4493   2.5090   2.5542   2.5707   2.5731

          k =-0.1667-0.4811 0.0000 ( 59291 PWs)   bands (ev):

   -68.1309 -68.1307 -39.6361 -39.6349 -39.6221 -39.6216 -39.6174 -39.6173
   -21.1303 -20.9281 -20.7368 -20.1749 -19.8190 -19.4813 -19.3317 -19.1885
   -19.0292 -18.7937 -18.6522 -18.5604 -18.1600 -18.1076 -17.9359 -17.7379
   -12.3644 -12.1297 -12.0613 -11.9235 -11.6995 -11.6730 -11.5694 -10.9583
   -10.9058 -10.6391 -10.5400  -9.8758  -9.7098  -9.3522  -9.1275  -8.6574
    -8.6393  -8.5687  -8.4062  -8.3728  -8.1778  -8.1193  -8.0814  -8.0654
    -7.7041  -7.6400  -7.5110  -7.4906  -7.3521  -7.1869  -7.0846  -6.8596
    -6.6377  -6.3894  -6.1772  -6.1739  -5.9712  -5.9447  -5.7998  -5.7458
    -5.4681  -5.3987  -5.1975  -5.0495  -4.4354  -4.3606  -4.0905  -3.7688
    -0.3419   0.6986   1.0050   1.1057   1.1481   1.2758   1.3371   1.7499
     1.8282   1.9029   2.0316   2.0936   2.1889   2.2427   2.2759   2.3324
     2.4071   2.4536   2.4788   2.5078   2.5574   2.6277

          k = 0.5000-0.0962 0.0000 ( 59291 PWs)   bands (ev):

   -68.1309 -68.1307 -39.6362 -39.6349 -39.6221 -39.6216 -39.6174 -39.6173
   -21.1286 -20.9328 -20.7337 -20.1737 -19.8193 -19.4821 -19.3355 -19.1856
   -19.0297 -18.7937 -18.6466 -18.5642 -18.1527 -18.1172 -17.9342 -17.7378
   -12.3639 -12.1300 -12.0598 -11.9261 -11.7074 -11.6633 -11.5710 -10.9586
   -10.9043 -10.6380 -10.5416  -9.8743  -9.7103  -9.3529  -9.1271  -8.6521
    -8.6397  -8.5675  -8.4087  -8.3887  -8.1764  -8.1089  -8.0900  -8.0575
    -7.7017  -7.6403  -7.5104  -7.4914  -7.3491  -7.1879  -7.0850  -6.8602
    -6.6379  -6.3922  -6.1861  -6.1740  -5.9635  -5.9444  -5.7993  -5.7467
    -5.4688  -5.3975  -5.1873  -5.0573  -4.4235  -4.3750  -4.0884  -3.7689
    -0.2625   0.3988   1.0009   1.1015   1.1578   1.2916   1.6031   1.7406
     1.7815   1.9735   2.0378   2.1353   2.1835   2.2376   2.3306   2.3593
     2.4183   2.4570   2.5009   2.5183   2.5695   2.6159

          k =-0.3333-0.3849 0.0000 ( 59291 PWs)   bands (ev):

   -68.1309 -68.1307 -39.6362 -39.6349 -39.6221 -39.6216 -39.6174 -39.6173
   -21.1291 -20.9312 -20.7348 -20.1737 -19.8202 -19.4812 -19.3326 -19.1875
   -19.0314 -18.7928 -18.6474 -18.5636 -18.1540 -18.1157 -17.9342 -17.7379
   -12.3641 -12.1289 -12.0614 -11.9255 -11.6999 -11.6717 -11.5702 -10.9584
   -10.9042 -10.6376 -10.5422  -9.8748  -9.7104  -9.3526  -9.1274  -8.6537
    -8.6389  -8.5687  -8.4071  -8.3829  -8.1776  -8.1126  -8.0816  -8.0665
    -7.7020  -7.6391  -7.5151  -7.4873  -7.3488  -7.1880  -7.0853  -6.8631
    -6.6366  -6.3891  -6.1787  -6.1752  -5.9690  -5.9438  -5.7996  -5.7511
    -5.4687  -5.3955  -5.1872  -5.0572  -4.4247  -4.3741  -4.0881  -3.7689
    -0.2927   0.4881   0.9997   1.0838   1.1875   1.2795   1.4874   1.7528
     1.8968   1.9597   2.0146   2.0636   2.1627   2.2653   2.3086   2.3617
     2.4035   2.4548   2.4788   2.5292   2.5673   2.6015

          k = 0.5000 0.0962 0.0000 ( 59291 PWs)   bands (ev):

   -68.1309 -68.1307 -39.6362 -39.6349 -39.6221 -39.6216 -39.6174 -39.6173
   -21.1286 -20.9328 -20.7337 -20.1737 -19.8193 -19.4821 -19.3355 -19.1855
   -19.0297 -18.7937 -18.6466 -18.5642 -18.1527 -18.1172 -17.9342 -17.7378
   -12.3639 -12.1300 -12.0598 -11.9262 -11.7074 -11.6633 -11.5710 -10.9585
   -10.9043 -10.6381 -10.5416  -9.8743  -9.7103  -9.3529  -9.1270  -8.6521
    -8.6397  -8.5675  -8.4087  -8.3887  -8.1765  -8.1089  -8.0900  -8.0575
    -7.7018  -7.6403  -7.5105  -7.4915  -7.3491  -7.1880  -7.0849  -6.8602
    -6.6378  -6.3922  -6.1861  -6.1739  -5.9635  -5.9444  -5.7994  -5.7467
    -5.4689  -5.3975  -5.1872  -5.0573  -4.4235  -4.3750  -4.0884  -3.7689
    -0.2625   0.3988   1.0009   1.1015   1.1578   1.2915   1.6031   1.7406
     1.7814   1.9734   2.0377   2.1353   2.1835   2.2375   2.3304   2.3591
     2.4179   2.4566   2.5006   2.5181   2.5690   2.6147

          k =-0.3333 0.3849 0.0000 ( 59291 PWs)   bands (ev):

   -68.1309 -68.1307 -39.6362 -39.6349 -39.6221 -39.6216 -39.6174 -39.6173
   -21.1292 -20.9312 -20.7348 -20.1737 -19.8202 -19.4812 -19.3326 -19.1875
   -19.0314 -18.7928 -18.6474 -18.5636 -18.1540 -18.1157 -17.9342 -17.7379
   -12.3641 -12.1289 -12.0614 -11.9255 -11.6999 -11.6717 -11.5702 -10.9584
   -10.9042 -10.6376 -10.5422  -9.8748  -9.7103  -9.3525  -9.1274  -8.6537
    -8.6389  -8.5687  -8.4071  -8.3829  -8.1777  -8.1126  -8.0815  -8.0666
    -7.7020  -7.6391  -7.5151  -7.4873  -7.3488  -7.1880  -7.0854  -6.8631
    -6.6366  -6.3891  -6.1787  -6.1753  -5.9690  -5.9439  -5.7995  -5.7511
    -5.4686  -5.3954  -5.1872  -5.0572  -4.4247  -4.3741  -4.0881  -3.7689
    -0.2927   0.4881   0.9997   1.0838   1.1875   1.2795   1.4875   1.7528
     1.8968   1.9597   2.0148   2.0636   2.1629   2.2655   2.3089   2.3619
     2.4037   2.4558   2.4788   2.5293   2.5680   2.6022

          k =-0.1667-0.0962 0.0000 ( 59226 PWs)   bands (ev):

   -68.1309 -68.1307 -39.6361 -39.6349 -39.6221 -39.6216 -39.6174 -39.6173
   -21.3278 -20.5493 -20.3597 -20.3552 -20.0025 -19.9945 -19.8212 -18.7431
   -18.7359 -18.3916 -18.3807 -18.3697 -18.2855 -18.2718 -18.0915 -18.0874
   -12.5255 -12.5171 -12.4246 -11.5977 -11.5934 -11.4458 -11.4339 -10.9423
   -10.9404  -9.9457  -9.9427  -9.6917  -9.3940  -9.3858  -9.2462  -9.2442
    -9.0586  -9.0568  -8.9193  -8.3396  -8.3372  -7.9188  -7.9146  -7.8733
    -7.8587  -7.7873  -7.6034  -7.5932  -7.1200  -7.0982  -6.9757  -6.9048
    -6.9020  -6.8568  -6.5476  -6.5448  -6.2742  -5.3380  -5.3224  -5.1593
    -5.0817  -4.8120  -4.7927  -4.7534  -4.6257  -4.5967  -4.3501  -4.3408
    -0.4030   0.7505   1.0841   1.1056   1.2205   1.4363   1.4987   1.5600
     1.7927   1.8834   1.9558   2.0028   2.0846   2.1294   2.2778   2.3344
     2.4078   2.4406   2.4893   2.5642   2.5797   2.6034

          k =-0.0000-0.1925 0.0000 ( 59226 PWs)   bands (ev):

   -68.1309 -68.1307 -39.6361 -39.6349 -39.6221 -39.6216 -39.6174 -39.6173
   -21.3279 -20.5461 -20.3696 -20.3507 -20.0035 -19.9889 -19.8235 -18.7463
   -18.7305 -18.3945 -18.3938 -18.3660 -18.2730 -18.2711 -18.0980 -18.0839
   -12.5224 -12.5205 -12.4243 -11.6026 -11.5896 -11.4402 -11.4373 -10.9445
   -10.9394  -9.9468  -9.9413  -9.6921  -9.3917  -9.3875  -9.2463  -9.2440
    -9.0583  -9.0576  -8.9196  -8.3403  -8.3357  -7.9170  -7.9165  -7.8667
    -7.8541  -7.7883  -7.6316  -7.5822  -7.1193  -7.0855  -6.9747  -6.9070
    -6.9009  -6.8635  -6.5496  -6.5425  -6.2745  -5.3458  -5.3103  -5.1596
    -5.0813  -4.8203  -4.8059  -4.7507  -4.6044  -4.5987  -4.3627  -4.3329
    -0.4197   0.8800   1.0887   1.0985   1.2276   1.3841   1.5036   1.5129
     1.7666   1.8707   1.9082   1.9678   2.0135   2.1632   2.2723   2.3465
     2.3695   2.4374   2.4949   2.5395   2.6161   2.6904

          k = 0.5000-0.8660 0.0000 ( 59292 PWs)   bands (ev):

   -68.1309 -68.1307 -39.6362 -39.6349 -39.6221 -39.6216 -39.6175 -39.6173
   -21.0710 -21.0540 -20.4841 -20.4793 -19.4437 -19.4335 -19.4279 -19.4213
   -19.0116 -18.9988 -18.3478 -18.3386 -18.3308 -18.3156 -17.8078 -17.8030
   -12.0933 -12.0869 -12.0788 -12.0670 -11.8954 -11.8896 -11.3502 -11.3390
   -10.2526 -10.2480 -10.1509 -10.1473 -10.1460 -10.1427  -8.5811  -8.5696
    -8.5670  -8.5576  -8.5512  -8.5425  -7.8805  -7.8794  -7.8771  -7.8748
    -7.8383  -7.8349  -7.7745  -7.7631  -7.5122  -7.4980  -6.6282  -6.6230
    -6.3478  -6.3226  -6.3102  -6.2991  -6.2097  -6.1999  -5.7147  -5.6964
    -5.5669  -5.5535  -4.7307  -4.7168  -4.7119  -4.6779  -3.8847  -3.8748
    -0.2615   0.3939   1.0115   1.0695   1.4234   1.4486   1.5170   1.5528
     1.7328   1.7555   2.0220   2.0529   2.1600   2.2864   2.3417   2.3634
     2.3954   2.4519   2.4887   2.5192   2.5472   2.6417

          k =-1.0000 0.0000 0.0000 ( 59292 PWs)   bands (ev):

   -68.1309 -68.1307 -39.6362 -39.6349 -39.6221 -39.6216 -39.6174 -39.6173
   -21.0847 -21.0385 -20.4921 -20.4741 -19.4423 -19.4347 -19.4302 -19.4155
   -19.0227 -18.9891 -18.3654 -18.3577 -18.3053 -18.3045 -17.8129 -17.7989
   -12.1090 -12.1009 -12.0591 -12.0542 -11.9007 -11.8852 -11.3634 -11.3274
   -10.2610 -10.2489 -10.1513 -10.1485 -10.1400 -10.1385  -8.6096  -8.5827
    -8.5785  -8.5413  -8.5408  -8.5083  -7.8897  -7.8884  -7.8749  -7.8712
    -7.8314  -7.8314  -7.7943  -7.7506  -7.5262  -7.4853  -6.6294  -6.6206
    -6.3485  -6.3229  -6.3120  -6.2861  -6.2211  -6.1906  -5.7272  -5.6885
    -5.5786  -5.5417  -4.7695  -4.7369  -4.6704  -4.6614  -3.8945  -3.8662
    -0.3622   0.8327   1.0466   1.0536   1.2647   1.3702   1.3864   1.5874
     1.6186   1.7270   1.8848   2.1231   2.1607   2.2443   2.2702   2.3302
     2.3883   2.4935   2.5073   2.5595   2.6292   2.6323

     the Fermi energy is    -0.8342 ev

!    total energy              =   -1133.81562378 Ry

     total all-electron energy =     -6753.491327 Ry
     estimated scf accuracy    <       0.00000002 Ry
     smearing contrib. (-TS)   =      -0.00000000 Ry
     internal energy E=F+TS    =   -1133.81562378 Ry

     The total energy is F=E-TS. E is the sum of the following terms:
     one-electron contribution =   -3920.95780027 Ry
     hartree contribution      =    1989.05209944 Ry
     xc contribution           =    -186.19993076 Ry
     ewald contribution        =    1343.65944792 Ry
     DFT-D3 Dispersion         =      -0.14082835 Ry
     one-center paw contrib.   =    -359.22861175 Ry

     total magnetization       =    12.00 Bohr mag/cell
     absolute magnetization    =    12.00 Bohr mag/cell

     convergence has been achieved in  12 iterations

     Writing output data file ./mytmp/Crdimer0.2-0.2.save/
 
     init_run     :     18.23s CPU     19.80s WALL (       1 calls)
     electrons    :    447.45s CPU    477.34s WALL (       1 calls)

     Called by init_run:
     wfcinit      :     13.54s CPU     14.59s WALL (       1 calls)
     potinit      :      1.48s CPU      1.58s WALL (       1 calls)
     hinit0       :      1.53s CPU      1.65s WALL (       1 calls)

     Called by electrons:
     c_bands      :    364.19s CPU    387.00s WALL (      12 calls)
     sum_band     :     64.12s CPU     68.48s WALL (      12 calls)
     v_of_rho     :      4.00s CPU      4.25s WALL (      13 calls)
     newd         :      8.28s CPU     10.83s WALL (      13 calls)
     PAW_pot      :      6.39s CPU      6.47s WALL (      13 calls)
     mix_rho      :      0.82s CPU      0.84s WALL (      12 calls)

     Called by c_bands:
     init_us_2    :      4.37s CPU      4.42s WALL (     750 calls)
     cegterg      :    353.60s CPU    376.35s WALL (     360 calls)

     Called by *egterg:
     cdiaghg      :     24.38s CPU     38.86s WALL (    2632 calls)
     h_psi        :    225.16s CPU    233.42s WALL (    2662 calls)
     s_psi        :     25.60s CPU     25.67s WALL (    2662 calls)
     g_psi        :      0.69s CPU      0.71s WALL (    2272 calls)

     Called by h_psi:
     h_psi:calbec :     26.20s CPU     26.77s WALL (    2662 calls)
     vloc_psi     :    170.93s CPU    178.50s WALL (    2662 calls)
     add_vuspsi   :     26.05s CPU     26.15s WALL (    2662 calls)

     General routines
     calbec       :     34.23s CPU     34.95s WALL (    3022 calls)
     fft          :      3.74s CPU      4.47s WALL (     319 calls)
     ffts         :      0.10s CPU      0.10s WALL (      50 calls)
     fftw         :    173.86s CPU    181.46s WALL (  229696 calls)
     interpolate  :      0.35s CPU      0.38s WALL (      26 calls)
 
     Parallel routines
     fft_scatt_xy :     28.04s CPU     29.15s WALL (  230065 calls)
     fft_scatt_yz :     67.95s CPU     71.96s WALL (  230065 calls)
 
     PWSCF        :   7m47.71s CPU   8m21.19s WALL

 
   This run was terminated on:  20:29:52  29Mar2021            

=------------------------------------------------------------------------------=
   JOB DONE.
=------------------------------------------------------------------------------=
