
     Program PWSCF v.6.7MaX starts on 29Mar2021 at 21:28:48 

     This program is part of the open-source Quantum ESPRESSO suite
     for quantum simulation of materials; please cite
         "P. Giannozzi et al., J. Phys.:Condens. Matter 21 395502 (2009);
         "P. Giannozzi et al., J. Phys.:Condens. Matter 29 465901 (2017);
          URL http://www.quantum-espresso.org", 
     in publications or presentations arising from this work. More details at
     http://www.quantum-espresso.org/quote

     Parallel version (MPI), running on    48 processors

     MPI processes distributed on     1 nodes
     R & G space division:  proc/nbgrp/npool/nimage =      48
     Reading input from Crdimer0.22-0.4.scf.in

     Current dimensions of program PWSCF are:
     Max number of different atomic species (ntypx) = 10
     Max number of k-points (npk) =  40000
     Max angular momentum in pseudopotentials (lmaxx) =  3
     file N.pbe-n-kjpaw_psl.1.0.0.UPF: wavefunction(s)  2S renormalized
     file Cr.pbe-spn-kjpaw_psl.1.0.0.UPF: wavefunction(s)  3S 3P 3D renormalized
     file Cr.pbe-spn-kjpaw_psl.1.0.0.UPF: wavefunction(s)  3S 3P 3D renormalized

     --------------------------------------------
     Parameters for DFT-D3 Dispersion Correction:
     --------------------------------------------
       Reference C6 values for interpolation: 

         atom   Coordination number   C6
         B          0.000           214.36
         B          0.971           150.74
         B          1.944           106.23
         B          2.913            62.89
         B          4.586            56.06
         N          0.000            50.54
         N          0.994            44.25
         N          2.014            39.35
         N          2.990            31.16
         Cr1        0.000          1381.48
         Cr1        1.827           571.38
         Cr1       10.619           306.69
         Cr2        0.000          1381.48
         Cr2        1.827           571.38
         Cr2       10.619           306.69

       Values used:

         atom   Coordination number  R0_AB[au]  C6      C8
         B          3.341            3.039     62.89   2505.86
         B          3.336            3.039     62.89   2505.99
         B          3.335            3.039     62.89   2506.00
         B          3.335            3.039     62.89   2506.01
         B          3.347            3.039     62.88   2505.72
         B          3.336            3.039     62.89   2506.00
         N          3.136            2.478     31.22    688.68
         N          3.140            2.478     31.22    688.65
         N          3.135            2.478     31.22    688.69
         N          3.135            2.478     31.22    688.69
         N          3.139            2.478     31.22    688.65
         N          3.137            2.478     31.22    688.67
         N          3.159            2.478     31.21    688.48
         N          3.134            2.478     31.22    688.70
         N          3.134            2.478     31.22    688.70
         B          3.364            3.039     62.87   2505.24
         B          3.336            3.039     62.89   2505.99
         B          3.336            3.039     62.89   2506.00
         B          3.347            3.039     62.88   2505.72
         B          3.341            3.039     62.89   2505.86
         B          3.364            3.039     62.87   2505.24
         N          3.159            2.478     31.21    688.48
         B          3.338            3.039     62.89   2505.95
         B          3.342            3.039     62.89   2505.85
         B          3.336            3.039     62.89   2506.00
         N          3.137            2.478     31.22    688.67
         N          3.140            2.478     31.22    688.65
         N          3.134            2.478     31.22    688.70
         N          3.134            2.478     31.22    688.70
         N          3.135            2.478     31.22    688.69
         N          3.135            2.478     31.22    688.69
         B          3.336            3.039     62.89   2506.00
         Cr1        0.103            3.252   1381.48 127494.75
         Cr2        0.103            3.252   1381.48 127494.75

         Molecular C6 ( Ry / a.u.^6 ) =     79164.66


     Subspace diagonalization in iterative solution of the eigenvalue problem:
     one sub-group per band group will be used
     scalapack distributed-memory algorithm (size of sub-group:  6*  6 procs)

 
     Parallelization info
     --------------------
     sticks:   dense  smooth     PW     G-vecs:    dense   smooth      PW
     Min         235      98     26                36277     9874    1408
     Max         236      99     27                36282     9883    1425
     Sum       11311    4741   1285              1741401   474235   68095
 


     bravais-lattice index     =            4
     lattice parameter (alat)  =      18.9275  a.u.
     unit-cell volume          =   10553.3021 (a.u.)^3
     number of atoms/cell      =           34
     number of atomic types    =            4
     number of electrons       =       156.00
     number of Kohn-Sham states=           94
     kinetic-energy cutoff     =      48.0000  Ry
     charge density cutoff     =     457.0000  Ry
     scf convergence threshold =      1.0E-07
     mixing beta               =       0.5000
     number of iterations used =            8  plain     mixing
     Exchange-correlation= SLA  PW   PBX  PBC
                           (   1   4   3   4   0   0   0)

     celldm(1)=  18.927497  celldm(2)=   0.000000  celldm(3)=   1.797125
     celldm(4)=   0.000000  celldm(5)=   0.000000  celldm(6)=   0.000000

     crystal axes: (cart. coord. in units of alat)
               a(1) = (   1.000000   0.000000   0.000000 )  
               a(2) = (  -0.500000   0.866025   0.000000 )  
               a(3) = (   0.000000   0.000000   1.797125 )  

     reciprocal axes: (cart. coord. in units 2 pi/alat)
               b(1) = (  1.000000  0.577350  0.000000 )  
               b(2) = (  0.000000  1.154701  0.000000 )  
               b(3) = (  0.000000  0.000000  0.556444 )  


     PseudoPot. # 1 for B  read from file:
     /home/sf05/q-e-qe-6.7MaX-Release/pseudo/B.pbe-n-kjpaw_psl.1.0.0.UPF
     MD5 check sum: d9c678ba5d3b2fd7b74e61139c9288d8
     Pseudo is Projector augmented-wave + core cor, Zval =  3.0
     Generated using "atomic" code by A. Dal Corso  v.5.1.2
     Shape of augmentation charge: PSQ
     Using radial grid of 1059 points,  4 beta functions with: 
                l(1) =   0
                l(2) =   0
                l(3) =   1
                l(4) =   1
     Q(r) pseudized with 0 coefficients 


     PseudoPot. # 2 for N  read from file:
     /home/sf05/q-e-qe-6.7MaX-Release/pseudo/N.pbe-n-kjpaw_psl.1.0.0.UPF
     MD5 check sum: e0e4e94a9c4025c5b51bd7d8793849bd
     Pseudo is Projector augmented-wave + core cor, Zval =  5.0
     Generated using "atomic" code by A. Dal Corso  v.5.1.2
     Shape of augmentation charge: PSQ
     Using radial grid of 1085 points,  4 beta functions with: 
                l(1) =   0
                l(2) =   0
                l(3) =   1
                l(4) =   1
     Q(r) pseudized with 0 coefficients 


     PseudoPot. # 3 for Cr read from file:
     /home/sf05/q-e-qe-6.7MaX-Release/pseudo/Cr.pbe-spn-kjpaw_psl.1.0.0.UPF
     MD5 check sum: 198f1a2427a48552563eee314eba32ba
     Pseudo is Projector augmented-wave + core cor, Zval = 14.0
     Generated using &quot;atomic&quot; code by A. Dal Corso  v.6.3
     Shape of augmentation charge: PSQ
     Using radial grid of 1183 points,  6 beta functions with: 
                l(1) =   0
                l(2) =   0
                l(3) =   1
                l(4) =   1
                l(5) =   2
                l(6) =   2
     Q(r) pseudized with 0 coefficients 


     PseudoPot. # 4 for Cr read from file:
     /home/sf05/q-e-qe-6.7MaX-Release/pseudo/Cr.pbe-spn-kjpaw_psl.1.0.0.UPF
     MD5 check sum: 198f1a2427a48552563eee314eba32ba
     Pseudo is Projector augmented-wave + core cor, Zval = 14.0
     Generated using &quot;atomic&quot; code by A. Dal Corso  v.6.3
     Shape of augmentation charge: PSQ
     Using radial grid of 1183 points,  6 beta functions with: 
                l(1) =   0
                l(2) =   0
                l(3) =   1
                l(4) =   1
                l(5) =   2
                l(6) =   2
     Q(r) pseudized with 0 coefficients 


     atomic species   valence    mass     pseudopotential
        B              3.00    10.81100     B ( 1.00)
        N              5.00    14.00674     N ( 1.00)
        Cr1           14.00    51.99610     Cr( 1.00)
        Cr2           14.00    51.99610     Cr( 1.00)

     Starting magnetic structure 
     atomic species   magnetization
        B            0.000
        N            0.000
        Cr1          1.000
        Cr2          1.000

     No symmetry found



   Cartesian axes

     site n.     atom                  positions (alat units)
         1           B   tau(   1) = (  -0.1250000   0.2165064   0.8985623  )
         2           B   tau(   2) = (   0.3750000   0.6495191   0.8985623  )
         3           B   tau(   3) = (   0.2500000   0.0000000   0.8985623  )
         4           B   tau(   4) = (   0.7500000   0.0000000   0.8985623  )
         5           B   tau(   5) = (   0.1250000   0.2165064   0.8985623  )
         6           B   tau(   6) = (  -0.3750000   0.6495191   0.8985623  )
         7           N   tau(   7) = (   0.7500005   0.2886748   0.8985623  )
         8           N   tau(   8) = (   0.3750005   0.5051812   0.8985623  )
         9           N   tau(   9) = (   0.3750005   0.0721685   0.8985623  )
        10           N   tau(  10) = (   0.6250005   0.0721685   0.8985623  )
        11           N   tau(  11) = (   0.2500005   0.2886748   0.8985623  )
        12           N   tau(  12) = (   0.6250005   0.5051812   0.8985623  )
        13           N   tau(  13) = (   0.0000005   0.2886748   0.8985623  )
        14           N   tau(  14) = (   0.2500005   0.7216875   0.8985623  )
        15           N   tau(  15) = (  -0.2499995   0.7216875   0.8985623  )
        16           B   tau(  16) = (   0.0000000   0.4330127   0.8985623  )
        17           B   tau(  17) = (   0.1250000   0.6495191   0.8985623  )
        18           B   tau(  18) = (  -0.1250000   0.6495191   0.8985623  )
        19           B   tau(  19) = (   0.3750000   0.2165064   0.8985623  )
        20           B   tau(  20) = (   0.6250000   0.2165064   0.8985623  )
        21           B   tau(  21) = (   0.5000000   0.4330127   0.8985623  )
        22           N   tau(  22) = (   0.5000005   0.2886748   0.8985623  )
        23           B   tau(  23) = (  -0.2500000   0.4330127   0.8985623  )
        24           B   tau(  24) = (   0.2500000   0.4330127   0.8985623  )
        25           B   tau(  25) = (   0.5000000   0.0000000   0.8985623  )
        26           N   tau(  26) = (  -0.1249995   0.5051812   0.8985623  )
        27           N   tau(  27) = (   0.1250005   0.5051812   0.8985623  )
        28           N   tau(  28) = (   0.0000005   0.7216875   0.8985623  )
        29           N   tau(  29) = (   0.5000005   0.7216875   0.8985623  )
        30           N   tau(  30) = (   0.1250005   0.0721685   0.8985623  )
        31           N   tau(  31) = (   0.8750005   0.0721685   0.8985623  )
        32           B   tau(  32) = (   0.0000000   0.0000000   0.8985623  )
        33           Cr1 tau(  33) = (   0.4700000   0.3464102   1.2040735  )
        34           Cr2 tau(  34) = (   0.0300000   0.3464102   1.2040735  )

     number of k points=    15  Gaussian smearing, width (Ry)=  0.0000
                       cart. coord. in units 2pi/alat
        k(    1) = (   0.1666667   0.2886751   0.0000000), wk =   0.0740741
        k(    2) = (   0.1666667  -0.4811252   0.0000000), wk =   0.0740741
        k(    3) = (   0.1666667  -0.0962250   0.0000000), wk =   0.0740741
        k(    4) = (  -0.5000000  -0.8660254   0.0000000), wk =   0.0370370
        k(    5) = (  -0.1666667   0.2886751   0.0000000), wk =   0.0740741
        k(    6) = (   0.3333333   0.0000000   0.0000000), wk =   0.0740741
        k(    7) = (  -0.1666667  -0.4811252   0.0000000), wk =   0.0740741
        k(    8) = (   0.5000000  -0.0962250   0.0000000), wk =   0.0740741
        k(    9) = (  -0.3333333  -0.3849002   0.0000000), wk =   0.0740741
        k(   10) = (   0.5000000   0.0962250   0.0000000), wk =   0.0740741
        k(   11) = (  -0.3333333   0.3849002   0.0000000), wk =   0.0740741
        k(   12) = (  -0.1666667  -0.0962250   0.0000000), wk =   0.0740741
        k(   13) = (  -0.0000000  -0.1924501   0.0000000), wk =   0.0740741
        k(   14) = (   0.5000000  -0.8660254   0.0000000), wk =   0.0370370
        k(   15) = (  -1.0000000   0.0000000   0.0000000), wk =   0.0370370

     Dense  grid:  1741401 G-vectors     FFT dimensions: ( 135, 135, 240)

     Smooth grid:   474235 G-vectors     FFT dimensions: (  90,  90, 160)

     Estimated max dynamical RAM per process >     218.62 MB

     Estimated total dynamical RAM >      10.25 GB
     Generating pointlists ...
     new r_m :   0.0595 (alat units)  1.1269 (a.u.) for type    1
     new r_m :   0.0595 (alat units)  1.1269 (a.u.) for type    2
     new r_m :   0.1288 (alat units)  2.4388 (a.u.) for type    3
     new r_m :   0.1288 (alat units)  2.4388 (a.u.) for type    4

     Initial potential from superposition of free atoms

     starting charge  155.99382, renormalised to  156.00000

     negative rho (up, down):  6.536E-03 4.655E-04
     Starting wfcs are  148 randomized atomic wfcs
     Checking if some PAW data can be deallocated... 

     total cpu time spent up to now is       20.2 secs

     Self-consistent Calculation

     iteration #  1     ecut=    48.00 Ry     beta= 0.50
     Davidson diagonalization with overlap
     ethr =  1.00E-02,  avg # of iterations =  2.9

     negative rho (up, down):  4.724E-03 2.964E-03

     total cpu time spent up to now is       60.1 secs

     total energy              =   -1130.76748675 Ry
     estimated scf accuracy    <      11.37019234 Ry

     total magnetization       =    12.00 Bohr mag/cell
     absolute magnetization    =    12.16 Bohr mag/cell

     iteration #  2     ecut=    48.00 Ry     beta= 0.50
     Davidson diagonalization with overlap
     ethr =  7.29E-03,  avg # of iterations =  2.6

     negative rho (up, down):  7.046E-03 1.087E-02

     total cpu time spent up to now is       97.3 secs

     total energy              =   -1133.10284200 Ry
     estimated scf accuracy    <       3.15228256 Ry

     total magnetization       =    12.00 Bohr mag/cell
     absolute magnetization    =    12.00 Bohr mag/cell

     iteration #  3     ecut=    48.00 Ry     beta= 0.50
     Davidson diagonalization with overlap
     ethr =  2.02E-03,  avg # of iterations =  6.7

     negative rho (up, down):  3.431E-03 5.985E-03

     total cpu time spent up to now is      134.1 secs

     total energy              =   -1133.63827457 Ry
     estimated scf accuracy    <       0.62629495 Ry

     total magnetization       =    12.00 Bohr mag/cell
     absolute magnetization    =    12.05 Bohr mag/cell

     iteration #  4     ecut=    48.00 Ry     beta= 0.50
     Davidson diagonalization with overlap
     ethr =  4.01E-04,  avg # of iterations =  7.1

     negative rho (up, down):  6.871E-03 1.410E-02

     total cpu time spent up to now is      170.7 secs

     total energy              =   -1133.79535584 Ry
     estimated scf accuracy    <       0.26072871 Ry

     total magnetization       =    12.00 Bohr mag/cell
     absolute magnetization    =    12.01 Bohr mag/cell

     iteration #  5     ecut=    48.00 Ry     beta= 0.50
     Davidson diagonalization with overlap
     ethr =  1.67E-04,  avg # of iterations =  9.2

     negative rho (up, down):  4.496E-03 9.849E-03

     total cpu time spent up to now is      209.6 secs

     total energy              =   -1133.80943439 Ry
     estimated scf accuracy    <       0.01700965 Ry

     total magnetization       =    12.00 Bohr mag/cell
     absolute magnetization    =    12.00 Bohr mag/cell

     iteration #  6     ecut=    48.00 Ry     beta= 0.50
     Davidson diagonalization with overlap
     c_bands:  1 eigenvalues not converged
     c_bands:  1 eigenvalues not converged
     c_bands:  1 eigenvalues not converged
     c_bands:  1 eigenvalues not converged
     c_bands:  3 eigenvalues not converged
     ethr =  1.09E-05,  avg # of iterations = 13.4

     negative rho (up, down):  3.355E-03 7.805E-03

     total cpu time spent up to now is      266.0 secs

     total energy              =   -1133.81187775 Ry
     estimated scf accuracy    <       0.00424146 Ry

     total magnetization       =    12.00 Bohr mag/cell
     absolute magnetization    =    12.00 Bohr mag/cell

     iteration #  7     ecut=    48.00 Ry     beta= 0.50
     Davidson diagonalization with overlap
     ethr =  2.72E-06,  avg # of iterations =  9.5

     negative rho (up, down):  3.025E-03 7.547E-03

     total cpu time spent up to now is      309.0 secs

     total energy              =   -1133.81280871 Ry
     estimated scf accuracy    <       0.00032795 Ry

     total magnetization       =    12.00 Bohr mag/cell
     absolute magnetization    =    12.00 Bohr mag/cell

     iteration #  8     ecut=    48.00 Ry     beta= 0.50
     Davidson diagonalization with overlap
     ethr =  2.10E-07,  avg # of iterations =  4.5

     negative rho (up, down):  2.894E-03 7.351E-03

     total cpu time spent up to now is      344.4 secs

     total energy              =   -1133.81286662 Ry
     estimated scf accuracy    <       0.00006611 Ry

     total magnetization       =    12.00 Bohr mag/cell
     absolute magnetization    =    12.00 Bohr mag/cell

     iteration #  9     ecut=    48.00 Ry     beta= 0.50
     Davidson diagonalization with overlap
     ethr =  4.24E-08,  avg # of iterations =  2.1

     negative rho (up, down):  2.856E-03 7.320E-03

     total cpu time spent up to now is      379.7 secs

     total energy              =   -1133.81292470 Ry
     estimated scf accuracy    <       0.00000496 Ry

     total magnetization       =    12.00 Bohr mag/cell
     absolute magnetization    =    12.00 Bohr mag/cell

     iteration # 10     ecut=    48.00 Ry     beta= 0.50
     Davidson diagonalization with overlap
     ethr =  3.18E-09,  avg # of iterations =  4.5

     negative rho (up, down):  2.845E-03 7.319E-03

     total cpu time spent up to now is      419.8 secs

     total energy              =   -1133.81294879 Ry
     estimated scf accuracy    <       0.00000327 Ry

     total magnetization       =    12.00 Bohr mag/cell
     absolute magnetization    =    12.00 Bohr mag/cell

     iteration # 11     ecut=    48.00 Ry     beta= 0.50
     Davidson diagonalization with overlap
     ethr =  2.10E-09,  avg # of iterations =  2.2

     negative rho (up, down):  2.841E-03 7.321E-03

     total cpu time spent up to now is      456.1 secs

     total energy              =   -1133.81296230 Ry
     estimated scf accuracy    <       0.00000022 Ry

     total magnetization       =    12.00 Bohr mag/cell
     absolute magnetization    =    12.00 Bohr mag/cell

     iteration # 12     ecut=    48.00 Ry     beta= 0.50
     Davidson diagonalization with overlap
     ethr =  1.43E-10,  avg # of iterations =  4.5

     negative rho (up, down):  2.838E-03 7.325E-03
 
     Magnetic moment per site:
     atom:    1    charge:    0.8804    magn:    0.0009    constr:    0.0000
     atom:    2    charge:    0.8803    magn:    0.0005    constr:    0.0000
     atom:    3    charge:    0.8803    magn:    0.0001    constr:    0.0000
     atom:    4    charge:    0.8803    magn:    0.0001    constr:    0.0000
     atom:    5    charge:    0.8805    magn:    0.0008    constr:    0.0000
     atom:    6    charge:    0.8803    magn:    0.0003    constr:    0.0000
     atom:    7    charge:    2.8607    magn:    0.0025    constr:    0.0000
     atom:    8    charge:    2.8607    magn:    0.0054    constr:    0.0000
     atom:    9    charge:    2.8608    magn:    0.0014    constr:    0.0000
     atom:   10    charge:    2.8608    magn:    0.0009    constr:    0.0000
     atom:   11    charge:    2.8606    magn:    0.0065    constr:    0.0000
     atom:   12    charge:    2.8608    magn:    0.0037    constr:    0.0000
     atom:   13    charge:    2.8597    magn:    0.0111    constr:    0.0000
     atom:   14    charge:    2.8599    magn:    0.0002    constr:    0.0000
     atom:   15    charge:    2.8599    magn:    0.0001    constr:    0.0000
     atom:   16    charge:    0.8805    magn:    0.0004    constr:    0.0000
     atom:   17    charge:    0.8800    magn:    0.0005    constr:    0.0000
     atom:   18    charge:    0.8800    magn:    0.0003    constr:    0.0000
     atom:   19    charge:    0.8799    magn:    0.0008    constr:    0.0000
     atom:   20    charge:    0.8798    magn:    0.0009    constr:    0.0000
     atom:   21    charge:    0.8803    magn:    0.0004    constr:    0.0000
     atom:   22    charge:    2.8610    magn:    0.0111    constr:    0.0000
     atom:   23    charge:    0.8798    magn:    0.0003    constr:    0.0000
     atom:   24    charge:    0.8799    magn:    0.0002    constr:    0.0000
     atom:   25    charge:    0.8799    magn:    0.0002    constr:    0.0000
     atom:   26    charge:    2.8596    magn:    0.0037    constr:    0.0000
     atom:   27    charge:    2.8596    magn:    0.0054    constr:    0.0000
     atom:   28    charge:    2.8598    magn:    0.0004    constr:    0.0000
     atom:   29    charge:    2.8596    magn:    0.0004    constr:    0.0000
     atom:   30    charge:    2.8595    magn:    0.0014    constr:    0.0000
     atom:   31    charge:    2.8595    magn:    0.0009    constr:    0.0000
     atom:   32    charge:    0.8802    magn:    0.0002    constr:    0.0000
     atom:   33    charge:   12.8126    magn:    4.8025    constr:    0.0000
     atom:   34    charge:   12.8126    magn:    4.8025    constr:    0.0000

     total cpu time spent up to now is      490.4 secs

     End of self-consistent calculation

 ------ SPIN UP ------------


          k = 0.1667 0.2887 0.0000 ( 59267 PWs)   bands (ev):

   -72.4767 -72.4765 -43.9417 -43.9415 -43.9375 -43.9372 -43.9299 -43.9297
   -21.2744 -20.6909 -20.6803 -20.1399 -20.1155 -19.6176 -19.6070 -19.1267
   -18.7274 -18.7170 -18.4921 -18.4700 -18.2220 -18.1132 -18.1032 -17.8763
   -12.5109 -12.2386 -12.2227 -11.8484 -11.8433 -11.6847 -11.2207 -11.2132
   -10.4194 -10.3937 -10.1456 -10.1402  -9.6167  -9.6135  -8.8658  -8.8565
    -8.8449  -8.7952  -8.7858  -8.6225  -8.2236  -8.0766  -8.0496  -7.8582
    -7.8513  -7.4656  -7.4630  -7.3326  -7.2635  -7.2361  -7.2317  -6.9935
    -6.9752  -6.5918  -6.5680  -6.1806  -6.1791  -5.8992  -5.4452  -5.3226
    -5.3043  -5.2267  -4.9585  -4.9100  -4.5336  -4.3847  -4.3660  -4.0054
    -2.3476  -1.6021  -1.4430  -1.4328  -1.4172  -1.3994  -1.3820  -1.3574
    -1.3373  -1.3193  -1.2952  -1.2519   0.6185   0.7466   1.0682   1.1427
     1.1938   1.4040   1.4501   1.5562   1.5693   1.6749

          k = 0.1667-0.4811 0.0000 ( 59291 PWs)   bands (ev):

   -72.4767 -72.4765 -43.9417 -43.9415 -43.9375 -43.9372 -43.9299 -43.9298
   -21.1445 -20.9387 -20.7504 -20.1884 -19.8315 -19.4941 -19.3435 -19.2026
   -19.0411 -18.8072 -18.6688 -18.5699 -18.1771 -18.1145 -17.9495 -17.7505
   -12.3750 -12.1402 -12.0712 -11.9328 -11.7075 -11.6844 -11.5789 -10.9683
   -10.9171 -10.6505 -10.5493  -9.8870  -9.7197  -9.3626  -9.1377  -8.6966
    -8.6496  -8.5797  -8.4156  -8.3933  -8.1882  -8.1544  -8.0902  -8.0759
    -7.7154  -7.6498  -7.5211  -7.4999  -7.3854  -7.1971  -7.0942  -6.8878
    -6.6489  -6.4182  -6.2015  -6.1841  -6.0031  -5.9560  -5.8102  -5.7705
    -5.4777  -5.4319  -5.2359  -5.0661  -4.4735  -4.3717  -4.1185  -3.7929
    -2.3394  -1.6086  -1.4421  -1.4308  -1.4168  -1.3967  -1.3866  -1.3571
    -1.3374  -1.3186  -1.2955  -1.2520   0.5998   0.6308   1.0172   1.1230
     1.1562   1.2198   1.3483   1.7644   1.8101   1.9022

          k = 0.1667-0.0962 0.0000 ( 59226 PWs)   bands (ev):

   -72.4767 -72.4765 -43.9417 -43.9415 -43.9374 -43.9372 -43.9299 -43.9297
   -21.3407 -20.5641 -20.3711 -20.3675 -20.0151 -20.0086 -19.8320 -18.7556
   -18.7519 -18.4082 -18.3877 -18.3864 -18.3020 -18.2803 -18.1025 -18.0986
   -12.5389 -12.5245 -12.4340 -11.6070 -11.6037 -11.4601 -11.4398 -10.9518
   -10.9508  -9.9550  -9.9541  -9.7027  -9.4056  -9.3948  -9.2569  -9.2549
    -9.0685  -9.0663  -8.9514  -8.3496  -8.3487  -7.9302  -7.9232  -7.9129
    -7.8723  -7.7967  -7.6311  -7.6179  -7.1513  -7.1295  -6.9863  -6.9143
    -6.9121  -6.8769  -6.5567  -6.5555  -6.2839  -5.3686  -5.3570  -5.1698
    -5.0920  -4.8462  -4.8106  -4.7904  -4.6536  -4.6166  -4.3724  -4.3634
    -2.3560  -1.5956  -1.4442  -1.4346  -1.4177  -1.4028  -1.3781  -1.3576
    -1.3372  -1.3201  -1.2950  -1.2518   0.6348   0.8522   1.0482   1.1427
     1.2420   1.3222   1.3729   1.5521   1.6214   1.6561

          k =-0.5000-0.8660 0.0000 ( 59292 PWs)   bands (ev):

   -72.4767 -72.4765 -43.9417 -43.9416 -43.9375 -43.9372 -43.9299 -43.9297
   -21.0815 -21.0699 -20.4948 -20.4930 -19.4599 -19.4551 -19.4333 -19.4313
   -19.0218 -19.0130 -18.3603 -18.3539 -18.3443 -18.3258 -17.8189 -17.8167
   -12.1035 -12.0953 -12.0910 -12.0775 -11.9037 -11.9001 -11.3583 -11.3511
   -10.2617 -10.2600 -10.1620 -10.1597 -10.1541 -10.1522  -8.6107  -8.5828
    -8.5777  -8.5730  -8.5721  -8.5617  -7.8912  -7.8894  -7.8866  -7.8860
    -7.8478  -7.8458  -7.7993  -7.7932  -7.5191  -7.5098  -6.6372  -6.6349
    -6.3937  -6.3767  -6.3198  -6.3133  -6.2185  -6.2119  -5.7360  -5.7268
    -5.5745  -5.5660  -4.7636  -4.7482  -4.7314  -4.7020  -3.9076  -3.9018
    -2.2317  -1.7768  -1.4367  -1.4220  -1.4067  -1.3950  -1.3912  -1.3643
    -1.3528  -1.3421  -1.3191  -1.2904   0.9059   1.0101   1.0964   1.2242
     1.3025   1.3187   1.4487   1.5399   1.6203   1.6378

          k =-0.1667 0.2887 0.0000 ( 59267 PWs)   bands (ev):

   -72.4767 -72.4765 -43.9417 -43.9415 -43.9375 -43.9372 -43.9299 -43.9297
   -21.2744 -20.6909 -20.6803 -20.1399 -20.1155 -19.6176 -19.6071 -19.1267
   -18.7273 -18.7170 -18.4921 -18.4700 -18.2220 -18.1131 -18.1032 -17.8763
   -12.5109 -12.2386 -12.2227 -11.8484 -11.8433 -11.6848 -11.2206 -11.2132
   -10.4194 -10.3937 -10.1456 -10.1402  -9.6167  -9.6135  -8.8658  -8.8565
    -8.8449  -8.7952  -8.7859  -8.6224  -8.2236  -8.0766  -8.0496  -7.8582
    -7.8513  -7.4657  -7.4630  -7.3326  -7.2635  -7.2360  -7.2317  -6.9935
    -6.9752  -6.5918  -6.5680  -6.1806  -6.1791  -5.8992  -5.4453  -5.3226
    -5.3043  -5.2266  -4.9585  -4.9100  -4.5337  -4.3847  -4.3660  -4.0054
    -2.3476  -1.6021  -1.4430  -1.4328  -1.4172  -1.3994  -1.3820  -1.3574
    -1.3373  -1.3193  -1.2953  -1.2519   0.6185   0.7466   1.0682   1.1427
     1.1938   1.4040   1.4500   1.5561   1.5691   1.6751

          k = 0.3333 0.0000 0.0000 ( 59267 PWs)   bands (ev):

   -72.4767 -72.4765 -43.9417 -43.9415 -43.9375 -43.9372 -43.9299 -43.9297
   -21.2739 -20.7155 -20.6555 -20.1374 -20.1165 -19.6426 -19.5840 -19.1289
   -18.7435 -18.6951 -18.4929 -18.4718 -18.2173 -18.1361 -18.0870 -17.8755
   -12.5104 -12.2371 -12.2240 -11.8566 -11.8376 -11.6827 -11.2372 -11.1971
   -10.4175 -10.3942 -10.1581 -10.1284  -9.6223  -9.6066  -8.8696  -8.8541
    -8.8413  -8.8159  -8.7663  -8.6233  -8.2254  -8.1343  -7.9908  -7.8560
    -7.8510  -7.4716  -7.4572  -7.3239  -7.2685  -7.2451  -7.2221  -6.9932
    -6.9770  -6.6483  -6.5184  -6.1834  -6.1753  -5.9053  -5.4448  -5.3393
    -5.2756  -5.2273  -4.9622  -4.9106  -4.5240  -4.4146  -4.3475  -4.0054
    -2.2857  -1.7002  -1.4396  -1.4273  -1.4116  -1.4005  -1.3833  -1.3602
    -1.3470  -1.3244  -1.3192  -1.2885   0.9122   1.0066   1.1015   1.1879
     1.2125   1.3461   1.4386   1.4915   1.5468   1.6094

          k =-0.1667-0.4811 0.0000 ( 59291 PWs)   bands (ev):

   -72.4767 -72.4765 -43.9417 -43.9415 -43.9375 -43.9372 -43.9299 -43.9298
   -21.1445 -20.9387 -20.7504 -20.1884 -19.8315 -19.4941 -19.3435 -19.2026
   -19.0411 -18.8072 -18.6688 -18.5698 -18.1771 -18.1145 -17.9495 -17.7505
   -12.3750 -12.1402 -12.0712 -11.9327 -11.7075 -11.6844 -11.5789 -10.9683
   -10.9171 -10.6505 -10.5493  -9.8870  -9.7196  -9.3627  -9.1377  -8.6966
    -8.6495  -8.5798  -8.4155  -8.3933  -8.1882  -8.1544  -8.0903  -8.0760
    -7.7154  -7.6499  -7.5210  -7.4999  -7.3854  -7.1971  -7.0942  -6.8878
    -6.6489  -6.4182  -6.2015  -6.1841  -6.0031  -5.9560  -5.8102  -5.7704
    -5.4777  -5.4319  -5.2359  -5.0661  -4.4735  -4.3717  -4.1185  -3.7929
    -2.3394  -1.6086  -1.4421  -1.4308  -1.4168  -1.3967  -1.3866  -1.3571
    -1.3374  -1.3186  -1.2955  -1.2520   0.5998   0.6308   1.0172   1.1230
     1.1562   1.2198   1.3483   1.7643   1.8102   1.9024

          k = 0.5000-0.0962 0.0000 ( 59291 PWs)   bands (ev):

   -72.4767 -72.4765 -43.9417 -43.9415 -43.9375 -43.9371 -43.9299 -43.9297
   -21.1414 -20.9475 -20.7446 -20.1865 -19.8318 -19.4952 -19.3516 -19.1965
   -19.0422 -18.8069 -18.6583 -18.5771 -18.1646 -18.1323 -17.9455 -17.7504
   -12.3737 -12.1408 -12.0690 -11.9371 -11.7200 -11.6694 -11.5814 -10.9693
   -10.9142 -10.6485 -10.5519  -9.8846  -9.7204  -9.3638  -9.1370  -8.6843
    -8.6505  -8.5779  -8.4291  -8.4199  -8.1855  -8.1303  -8.1041  -8.0633
    -7.7111  -7.6507  -7.5198  -7.5015  -7.3795  -7.1987  -7.0949  -6.8895
    -6.6492  -6.4212  -6.2280  -6.1835  -5.9844  -5.9551  -5.8093  -5.7730
    -5.4793  -5.4260  -5.2132  -5.0837  -4.4486  -4.4050  -4.1113  -3.7942
    -2.2318  -1.7766  -1.4367  -1.4220  -1.4067  -1.3971  -1.3899  -1.3642
    -1.3529  -1.3421  -1.3191  -1.2904   0.8657   0.9922   1.1274   1.1529
     1.2454   1.3510   1.4115   1.4569   1.5872   1.7646

          k =-0.3333-0.3849 0.0000 ( 59291 PWs)   bands (ev):

   -72.4767 -72.4765 -43.9417 -43.9415 -43.9375 -43.9372 -43.9299 -43.9298
   -21.1425 -20.9445 -20.7467 -20.1864 -19.8336 -19.4936 -19.3459 -19.1998
   -19.0460 -18.8047 -18.6599 -18.5762 -18.1671 -18.1293 -17.9456 -17.7506
   -12.3745 -12.1385 -12.0717 -11.9356 -11.7086 -11.6823 -11.5803 -10.9688
   -10.9143 -10.6478 -10.5528  -9.8854  -9.7205  -9.3634  -9.1376  -8.6885
    -8.6487  -8.5798  -8.4200  -8.4137  -8.1877  -8.1384  -8.0902  -8.0782
    -7.7118  -7.6484  -7.5277  -7.4946  -7.3792  -7.1989  -7.0955  -6.8947
    -6.6468  -6.4163  -6.2099  -6.1864  -5.9949  -5.9540  -5.8097  -5.7855
    -5.4789  -5.4202  -5.2136  -5.0836  -4.4521  -4.4019  -4.1109  -3.7941
    -2.2750  -1.7100  -1.4384  -1.4258  -1.4109  -1.3959  -1.3888  -1.3613
    -1.3471  -1.3244  -1.3186  -1.2885   0.7635   0.9750   1.0409   1.1252
     1.1870   1.2482   1.3270   1.5400   1.7195   1.8442

          k = 0.5000 0.0962 0.0000 ( 59291 PWs)   bands (ev):

   -72.4767 -72.4765 -43.9417 -43.9415 -43.9375 -43.9371 -43.9299 -43.9297
   -21.1414 -20.9475 -20.7446 -20.1865 -19.8318 -19.4952 -19.3516 -19.1965
   -19.0422 -18.8068 -18.6583 -18.5772 -18.1646 -18.1323 -17.9455 -17.7504
   -12.3737 -12.1408 -12.0689 -11.9372 -11.7200 -11.6694 -11.5814 -10.9693
   -10.9142 -10.6486 -10.5519  -9.8846  -9.7204  -9.3637  -9.1369  -8.6843
    -8.6505  -8.5779  -8.4291  -8.4199  -8.1855  -8.1303  -8.1041  -8.0632
    -7.7111  -7.6507  -7.5199  -7.5016  -7.3794  -7.1988  -7.0948  -6.8895
    -6.6491  -6.4212  -6.2280  -6.1835  -5.9844  -5.9550  -5.8094  -5.7731
    -5.4794  -5.4260  -5.2132  -5.0837  -4.4486  -4.4049  -4.1113  -3.7942
    -2.2318  -1.7766  -1.4367  -1.4220  -1.4067  -1.3971  -1.3899  -1.3642
    -1.3529  -1.3421  -1.3191  -1.2904   0.8658   0.9922   1.1274   1.1529
     1.2453   1.3510   1.4115   1.4569   1.5870   1.7647

          k =-0.3333 0.3849 0.0000 ( 59291 PWs)   bands (ev):

   -72.4767 -72.4765 -43.9417 -43.9415 -43.9375 -43.9372 -43.9299 -43.9298
   -21.1425 -20.9445 -20.7467 -20.1864 -19.8336 -19.4936 -19.3459 -19.1998
   -19.0460 -18.8047 -18.6599 -18.5762 -18.1670 -18.1293 -17.9456 -17.7506
   -12.3744 -12.1385 -12.0717 -11.9356 -11.7086 -11.6823 -11.5803 -10.9688
   -10.9143 -10.6478 -10.5528  -9.8854  -9.7205  -9.3634  -9.1376  -8.6885
    -8.6487  -8.5798  -8.4200  -8.4138  -8.1877  -8.1384  -8.0902  -8.0783
    -7.7118  -7.6484  -7.5278  -7.4945  -7.3792  -7.1989  -7.0956  -6.8947
    -6.6469  -6.4163  -6.2099  -6.1864  -5.9949  -5.9541  -5.8096  -5.7855
    -5.4788  -5.4201  -5.2136  -5.0836  -4.4521  -4.4019  -4.1109  -3.7941
    -2.2750  -1.7100  -1.4384  -1.4258  -1.4109  -1.3958  -1.3888  -1.3613
    -1.3471  -1.3244  -1.3186  -1.2885   0.7635   0.9750   1.0408   1.1252
     1.1870   1.2482   1.3270   1.5400   1.7194   1.8441

          k =-0.1667-0.0962 0.0000 ( 59226 PWs)   bands (ev):

   -72.4767 -72.4765 -43.9417 -43.9415 -43.9374 -43.9372 -43.9299 -43.9297
   -21.3407 -20.5641 -20.3711 -20.3675 -20.0151 -20.0086 -19.8320 -18.7556
   -18.7518 -18.4082 -18.3877 -18.3864 -18.3020 -18.2804 -18.1025 -18.0986
   -12.5389 -12.5245 -12.4340 -11.6070 -11.6037 -11.4601 -11.4398 -10.9518
   -10.9508  -9.9551  -9.9541  -9.7027  -9.4055  -9.3947  -9.2569  -9.2549
    -9.0685  -9.0664  -8.9514  -8.3496  -8.3488  -7.9302  -7.9232  -7.9129
    -7.8722  -7.7967  -7.6311  -7.6179  -7.1513  -7.1295  -6.9863  -6.9143
    -6.9121  -6.8769  -6.5566  -6.5554  -6.2840  -5.3686  -5.3571  -5.1697
    -5.0921  -4.8461  -4.8106  -4.7904  -4.6535  -4.6166  -4.3725  -4.3634
    -2.3560  -1.5956  -1.4442  -1.4346  -1.4177  -1.4028  -1.3781  -1.3576
    -1.3372  -1.3201  -1.2950  -1.2518   0.6348   0.8522   1.0482   1.1427
     1.2420   1.3223   1.3729   1.5521   1.6215   1.6561

          k =-0.0000-0.1925 0.0000 ( 59226 PWs)   bands (ev):

   -72.4767 -72.4765 -43.9417 -43.9415 -43.9374 -43.9372 -43.9299 -43.9297
   -21.3409 -20.5580 -20.3896 -20.3591 -20.0187 -19.9964 -19.8364 -18.7640
   -18.7385 -18.4369 -18.3906 -18.3755 -18.2803 -18.2799 -18.1151 -18.0923
   -12.5376 -12.5266 -12.4333 -11.6151 -11.5970 -11.4557 -11.4411 -10.9561
   -10.9486  -9.9594  -9.9495  -9.7032  -9.4058  -9.3932  -9.2578  -9.2546
    -9.0677  -9.0676  -8.9522  -8.3519  -8.3451  -7.9311  -7.9231  -7.8878
    -7.8696  -7.7985  -7.6947  -7.5933  -7.1561  -7.0947  -6.9844  -6.9193
    -6.9091  -6.8931  -6.5614  -6.5499  -6.2846  -5.3908  -5.3207  -5.1703
    -5.0915  -4.9072  -4.8086  -4.7694  -4.6208  -4.6122  -4.4051  -4.3440
    -2.3806  -1.5608  -1.4459  -1.4365  -1.4200  -1.4024  -1.3777  -1.3566
    -1.3328  -1.3199  -1.2928  -1.2048   0.4704   0.7817   1.0157   1.1155
     1.2182   1.3653   1.3810   1.5862   1.6403   1.7433

          k = 0.5000-0.8660 0.0000 ( 59292 PWs)   bands (ev):

   -72.4767 -72.4765 -43.9417 -43.9416 -43.9375 -43.9372 -43.9299 -43.9297
   -21.0815 -21.0699 -20.4948 -20.4930 -19.4599 -19.4551 -19.4333 -19.4314
   -19.0218 -19.0130 -18.3603 -18.3538 -18.3442 -18.3259 -17.8189 -17.8167
   -12.1035 -12.0953 -12.0909 -12.0776 -11.9036 -11.9001 -11.3582 -11.3512
   -10.2617 -10.2600 -10.1620 -10.1597 -10.1541 -10.1522  -8.6107  -8.5828
    -8.5777  -8.5729  -8.5721  -8.5618  -7.8912  -7.8894  -7.8866  -7.8860
    -7.8479  -7.8459  -7.7993  -7.7932  -7.5192  -7.5098  -6.6371  -6.6349
    -6.3937  -6.3766  -6.3198  -6.3133  -6.2183  -6.2119  -5.7360  -5.7268
    -5.5746  -5.5661  -4.7635  -4.7482  -4.7313  -4.7021  -3.9076  -3.9019
    -2.2317  -1.7768  -1.4367  -1.4220  -1.4067  -1.3950  -1.3912  -1.3643
    -1.3528  -1.3421  -1.3191  -1.2904   0.9059   1.0101   1.0965   1.2243
     1.3025   1.3187   1.4487   1.5398   1.6202   1.6378

          k =-1.0000 0.0000 0.0000 ( 59292 PWs)   bands (ev):

   -72.4767 -72.4765 -43.9417 -43.9415 -43.9375 -43.9372 -43.9299 -43.9297
   -21.1041 -21.0440 -20.5107 -20.4823 -19.4754 -19.4351 -19.4313 -19.4301
   -19.0436 -18.9947 -18.4071 -18.3530 -18.3199 -18.3040 -17.8308 -17.8072
   -12.1367 -12.0994 -12.0704 -12.0564 -11.9132 -11.8917 -11.3773 -11.3339
   -10.2790 -10.2589 -10.1625 -10.1579 -10.1488 -10.1444  -8.6622  -8.6059
    -8.5814  -8.5525  -8.5419  -8.5165  -7.9100  -7.9013  -7.8851  -7.8761
    -7.8586  -7.8368  -7.8310  -7.7613  -7.5418  -7.4899  -6.6437  -6.6262
    -6.4249  -6.3345  -6.3137  -6.3042  -6.2369  -6.1971  -5.7706  -5.7061
    -5.5943  -5.5464  -4.8565  -4.7327  -4.6948  -4.6627  -3.9348  -3.8778
    -2.3654  -1.5714  -1.4441  -1.4324  -1.4192  -1.3968  -1.3860  -1.3547
    -1.3331  -1.3186  -1.2933  -1.2054   0.4512   0.5631   1.0256   1.1083
     1.1447   1.4142   1.5426   1.6001   1.6111   1.8845

 ------ SPIN DOWN ----------


          k = 0.1667 0.2887 0.0000 ( 59267 PWs)   bands (ev):

   -68.1061 -68.1060 -39.6090 -39.6087 -39.5990 -39.5985 -39.5955 -39.5953
   -21.2670 -20.6831 -20.6738 -20.1310 -20.1101 -19.6100 -19.6008 -19.1194
   -18.7182 -18.7099 -18.4836 -18.4643 -18.2134 -18.1059 -18.0979 -17.8691
   -12.5060 -12.2324 -12.2188 -11.8437 -11.8391 -11.6806 -11.2155 -11.2085
   -10.4139 -10.3888 -10.1401 -10.1354  -9.6117  -9.6088  -8.8523  -8.8401
    -8.8361  -8.7902  -8.7817  -8.6180  -8.2192  -8.0476  -8.0282  -7.8532
    -7.8472  -7.4597  -7.4576  -7.2983  -7.2508  -7.2313  -7.2274  -6.9881
    -6.9717  -6.5671  -6.5494  -6.1758  -6.1744  -5.8764  -5.4399  -5.2938
    -5.2829  -5.2218  -4.9318  -4.8962  -4.5096  -4.3633  -4.3518  -3.9863
    -0.2755   0.6761   1.0481   1.1839   1.3105   1.4070   1.4527   1.5204
     1.5489   1.8092   1.8773   2.1119   2.1945   2.2453   2.2880   2.3563
     2.4233   2.5101   2.5375   2.5738   2.5859   2.6355

          k = 0.1667-0.4811 0.0000 ( 59291 PWs)   bands (ev):

   -68.1062 -68.1060 -39.6090 -39.6087 -39.5990 -39.5985 -39.5955 -39.5953
   -21.1364 -20.9328 -20.7430 -20.1809 -19.8245 -19.4869 -19.3366 -19.1949
   -19.0341 -18.7999 -18.6592 -18.5645 -18.1667 -18.1108 -17.9420 -17.7432
   -12.3700 -12.1352 -12.0667 -11.9283 -11.7034 -11.6795 -11.5743 -10.9633
   -10.9116 -10.6449 -10.5449  -9.8814  -9.7150  -9.3574  -9.1329  -8.6642
    -8.6446  -8.5742  -8.4111  -8.3767  -8.1834  -8.1271  -8.0855  -8.0717
    -7.7102  -7.6453  -7.5162  -7.4960  -7.3592  -7.1920  -7.0897  -6.8654
    -6.6432  -6.3953  -6.1822  -6.1782  -5.9789  -5.9503  -5.8053  -5.7500
    -5.4731  -5.4068  -5.2056  -5.0532  -4.4438  -4.3627  -4.0974  -3.7743
    -0.2378   0.6464   0.9988   1.1022   1.1431   1.2579   1.3569   1.7537
     1.8300   1.8715   2.0250   2.1136   2.2361   2.2793   2.2968   2.3461
     2.4381   2.4428   2.5000   2.5058   2.5588   2.6342

          k = 0.1667-0.0962 0.0000 ( 59226 PWs)   bands (ev):

   -68.1061 -68.1060 -39.6090 -39.6087 -39.5990 -39.5985 -39.5955 -39.5953
   -21.3335 -20.5557 -20.3642 -20.3614 -20.0069 -20.0017 -19.8261 -18.7471
   -18.7440 -18.3994 -18.3813 -18.3783 -18.2934 -18.2746 -18.0958 -18.0928
   -12.5330 -12.5205 -12.4293 -11.6024 -11.5994 -11.4540 -11.4362 -10.9469
   -10.9461  -9.9500  -9.9491  -9.6973  -9.4001  -9.3903  -9.2513  -9.2497
    -9.0637  -9.0620  -8.9252  -8.3440  -8.3432  -7.9251  -7.9191  -7.8806
    -7.8649  -7.7924  -7.6080  -7.6003  -7.1221  -7.1082  -6.9814  -6.9097
    -6.9079  -6.8616  -6.5520  -6.5510  -6.2793  -5.3408  -5.3335  -5.1647
    -5.0870  -4.8206  -4.7923  -4.7653  -4.6310  -4.6015  -4.3532  -4.3474
    -0.3102   0.7084   1.0372   1.1206   1.2445   1.4504   1.4874   1.5531
     1.7729   1.8762   1.9830   2.0378   2.0694   2.1490   2.2927   2.3655
     2.4385   2.4781   2.4977   2.5654   2.6063   2.6361

          k =-0.5000-0.8660 0.0000 ( 59292 PWs)   bands (ev):

   -68.1062 -68.1060 -39.6090 -39.6087 -39.5990 -39.5985 -39.5955 -39.5953
   -21.0734 -21.0632 -20.4880 -20.4863 -19.4503 -19.4460 -19.4273 -19.4260
   -19.0142 -19.0069 -18.3511 -18.3453 -18.3368 -18.3214 -17.8116 -17.8097
   -12.0973 -12.0897 -12.0865 -12.0740 -11.8994 -11.8961 -11.3532 -11.3465
   -10.2563 -10.2549 -10.1562 -10.1542 -10.1496 -10.1478  -8.5797  -8.5723
    -8.5697  -8.5670  -8.5587  -8.5564  -7.8859  -7.8844  -7.8822  -7.8814
    -7.8425  -7.8406  -7.7771  -7.7724  -7.5144  -7.5060  -6.6320  -6.6303
    -6.3550  -6.3440  -6.3050  -6.3007  -6.2131  -6.2071  -5.7150  -5.7077
    -5.5692  -5.5618  -4.7366  -4.7241  -4.7110  -4.6891  -3.8876  -3.8835
    -0.1018   0.2808   1.0266   1.0419   1.4083   1.4358   1.4946   1.5571
     1.7698   1.7754   2.0464   2.0684   2.1832   2.2394   2.3843   2.4011
     2.4374   2.4449   2.5351   2.5465   2.5511   2.6352

          k =-0.1667 0.2887 0.0000 ( 59267 PWs)   bands (ev):

   -68.1061 -68.1060 -39.6090 -39.6087 -39.5990 -39.5985 -39.5955 -39.5953
   -21.2670 -20.6831 -20.6738 -20.1310 -20.1101 -19.6099 -19.6008 -19.1194
   -18.7181 -18.7100 -18.4836 -18.4643 -18.2134 -18.1059 -18.0979 -17.8691
   -12.5060 -12.2325 -12.2188 -11.8437 -11.8392 -11.6806 -11.2154 -11.2086
   -10.4139 -10.3888 -10.1400 -10.1354  -9.6116  -9.6088  -8.8523  -8.8401
    -8.8361  -8.7902  -8.7817  -8.6180  -8.2193  -8.0476  -8.0282  -7.8532
    -7.8472  -7.4597  -7.4576  -7.2983  -7.2508  -7.2312  -7.2274  -6.9881
    -6.9718  -6.5671  -6.5494  -6.1758  -6.1744  -5.8764  -5.4400  -5.2938
    -5.2830  -5.2217  -4.9318  -4.8962  -4.5096  -4.3633  -4.3518  -3.9863
    -0.2755   0.6761   1.0481   1.1839   1.3104   1.4070   1.4526   1.5204
     1.5489   1.8091   1.8773   2.1119   2.1945   2.2453   2.2881   2.3563
     2.4232   2.5102   2.5373   2.5738   2.5860   2.6355

          k = 0.3333 0.0000 0.0000 ( 59267 PWs)   bands (ev):

   -68.1061 -68.1060 -39.6090 -39.6087 -39.5990 -39.5985 -39.5955 -39.5953
   -21.2666 -20.7044 -20.6524 -20.1294 -20.1107 -19.6314 -19.5808 -19.1211
   -18.7323 -18.6917 -18.4841 -18.4656 -18.2099 -18.1250 -18.0837 -17.8685
   -12.5056 -12.2314 -12.2198 -11.8513 -11.8335 -11.6789 -11.2306 -11.1938
   -10.4124 -10.3892 -10.1509 -10.1250  -9.6166  -9.6028  -8.8537  -8.8430
    -8.8304  -8.8087  -8.7641  -8.6187  -8.2207  -8.0908  -7.9846  -7.8515
    -7.8469  -7.4647  -7.4528  -7.2925  -7.2539  -7.2394  -7.2189  -6.9878
    -6.9732  -6.6087  -6.5119  -6.1784  -6.1711  -5.8799  -5.4396  -5.3091
    -5.2610  -5.2223  -4.9342  -4.8961  -4.5040  -4.3862  -4.3357  -3.9861
    -0.2132   0.4564   1.0360   1.1900   1.3450   1.4527   1.4683   1.5195
     1.5809   1.8009   2.0760   2.1653   2.2035   2.2414   2.2713   2.4042
     2.4489   2.4706   2.5170   2.5581   2.5736   2.6376

          k =-0.1667-0.4811 0.0000 ( 59291 PWs)   bands (ev):

   -68.1062 -68.1060 -39.6090 -39.6087 -39.5990 -39.5985 -39.5955 -39.5953
   -21.1364 -20.9328 -20.7430 -20.1809 -19.8245 -19.4868 -19.3366 -19.1949
   -19.0341 -18.7999 -18.6592 -18.5644 -18.1667 -18.1108 -17.9420 -17.7432
   -12.3701 -12.1351 -12.0667 -11.9283 -11.7034 -11.6795 -11.5743 -10.9633
   -10.9116 -10.6449 -10.5448  -9.8813  -9.7150  -9.3574  -9.1329  -8.6642
    -8.6446  -8.5743  -8.4111  -8.3767  -8.1834  -8.1271  -8.0855  -8.0718
    -7.7102  -7.6453  -7.5161  -7.4960  -7.3592  -7.1919  -7.0897  -6.8654
    -6.6432  -6.3954  -6.1822  -6.1782  -5.9790  -5.9502  -5.8052  -5.7500
    -5.4732  -5.4068  -5.2056  -5.0532  -4.4438  -4.3627  -4.0974  -3.7743
    -0.2378   0.6464   0.9988   1.1022   1.1431   1.2579   1.3569   1.7538
     1.8299   1.8715   2.0250   2.1136   2.2361   2.2793   2.2968   2.3461
     2.4379   2.4430   2.5000   2.5058   2.5587   2.6347

          k = 0.5000-0.0962 0.0000 ( 59291 PWs)   bands (ev):

   -68.1062 -68.1060 -39.6090 -39.6087 -39.5990 -39.5985 -39.5955 -39.5953
   -21.1340 -20.9394 -20.7386 -20.1795 -19.8247 -19.4877 -19.3426 -19.1905
   -19.0348 -18.7997 -18.6514 -18.5699 -18.1570 -18.1243 -17.9391 -17.7431
   -12.3689 -12.1357 -12.0648 -11.9320 -11.7142 -11.6666 -11.5764 -10.9641
   -10.9092 -10.6433 -10.5470  -9.8794  -9.7156  -9.3583  -9.1323  -8.6571
    -8.6453  -8.5728  -8.4148  -8.3971  -8.1814  -8.1137  -8.0976  -8.0607
    -7.7068  -7.6460  -7.5152  -7.4974  -7.3556  -7.1932  -7.0902  -6.8662
    -6.6435  -6.3973  -6.1955  -6.1790  -5.9685  -5.9497  -5.8046  -5.7514
    -5.4744  -5.4044  -5.1918  -5.0634  -4.4275  -4.3836  -4.0935  -3.7749
    -0.1040   0.2870   0.9933   1.1027   1.1429   1.2799   1.6122   1.7347
     1.7904   2.0281   2.0399   2.1349   2.1900   2.2724   2.3226   2.3619
     2.4449   2.4748   2.5206   2.5443   2.5905   2.6291

          k =-0.3333-0.3849 0.0000 ( 59291 PWs)   bands (ev):

   -68.1062 -68.1060 -39.6090 -39.6087 -39.5990 -39.5985 -39.5955 -39.5953
   -21.1349 -20.9371 -20.7402 -20.1794 -19.8261 -19.4865 -19.3384 -19.1929
   -19.0377 -18.7981 -18.6525 -18.5692 -18.1587 -18.1222 -17.9392 -17.7433
   -12.3696 -12.1338 -12.0670 -11.9307 -11.7044 -11.6777 -11.5754 -10.9637
   -10.9094 -10.6427 -10.5476  -9.8800  -9.7157  -9.3580  -9.1328  -8.6595
    -8.6439  -8.5742  -8.4125  -8.3898  -8.1831  -8.1184  -8.0854  -8.0736
    -7.7074  -7.6441  -7.5218  -7.4914  -7.3555  -7.1934  -7.0907  -6.8694
    -6.6416  -6.3944  -6.1851  -6.1810  -5.9746  -5.9489  -5.8049  -5.7585
    -5.4741  -5.4011  -5.1922  -5.0632  -4.4295  -4.3817  -4.0933  -3.7749
    -0.1618   0.4054   1.0033   1.0678   1.1797   1.2687   1.4904   1.7653
     1.9142   1.9536   2.0387   2.0640   2.1856   2.2752   2.3102   2.3916
     2.4128   2.4624   2.5191   2.5476   2.5790   2.6285

          k = 0.5000 0.0962 0.0000 ( 59291 PWs)   bands (ev):

   -68.1062 -68.1060 -39.6090 -39.6087 -39.5990 -39.5985 -39.5955 -39.5953
   -21.1340 -20.9394 -20.7386 -20.1795 -19.8247 -19.4877 -19.3426 -19.1905
   -19.0348 -18.7996 -18.6514 -18.5699 -18.1570 -18.1243 -17.9391 -17.7431
   -12.3689 -12.1357 -12.0647 -11.9320 -11.7142 -11.6666 -11.5764 -10.9640
   -10.9092 -10.6433 -10.5470  -9.8795  -9.7156  -9.3583  -9.1323  -8.6571
    -8.6453  -8.5728  -8.4148  -8.3971  -8.1814  -8.1137  -8.0975  -8.0606
    -7.7068  -7.6460  -7.5152  -7.4974  -7.3556  -7.1933  -7.0902  -6.8662
    -6.6434  -6.3973  -6.1955  -6.1789  -5.9685  -5.9497  -5.8047  -5.7514
    -5.4744  -5.4044  -5.1918  -5.0634  -4.4275  -4.3835  -4.0935  -3.7749
    -0.1040   0.2870   0.9933   1.1027   1.1429   1.2799   1.6122   1.7347
     1.7904   2.0281   2.0399   2.1349   2.1900   2.2723   2.3226   2.3620
     2.4449   2.4747   2.5206   2.5441   2.5903   2.6280

          k =-0.3333 0.3849 0.0000 ( 59291 PWs)   bands (ev):

   -68.1062 -68.1060 -39.6090 -39.6087 -39.5990 -39.5985 -39.5955 -39.5953
   -21.1349 -20.9371 -20.7402 -20.1794 -19.8261 -19.4865 -19.3384 -19.1929
   -19.0377 -18.7981 -18.6525 -18.5692 -18.1587 -18.1222 -17.9392 -17.7433
   -12.3696 -12.1338 -12.0671 -11.9307 -11.7044 -11.6778 -11.5754 -10.9637
   -10.9093 -10.6427 -10.5476  -9.8800  -9.7157  -9.3580  -9.1328  -8.6595
    -8.6439  -8.5742  -8.4126  -8.3898  -8.1832  -8.1184  -8.0854  -8.0736
    -7.7073  -7.6441  -7.5218  -7.4914  -7.3555  -7.1933  -7.0908  -6.8694
    -6.6416  -6.3944  -6.1851  -6.1810  -5.9746  -5.9490  -5.8049  -5.7585
    -5.4740  -5.4011  -5.1922  -5.0632  -4.4295  -4.3817  -4.0932  -3.7749
    -0.1619   0.4054   1.0033   1.0678   1.1797   1.2687   1.4904   1.7653
     1.9141   1.9536   2.0386   2.0640   2.1857   2.2753   2.3101   2.3916
     2.4129   2.4625   2.5191   2.5475   2.5791   2.6312

          k =-0.1667-0.0962 0.0000 ( 59226 PWs)   bands (ev):

   -68.1061 -68.1060 -39.6090 -39.6087 -39.5990 -39.5985 -39.5955 -39.5953
   -21.3335 -20.5557 -20.3642 -20.3614 -20.0069 -20.0017 -19.8261 -18.7471
   -18.7440 -18.3994 -18.3813 -18.3783 -18.2934 -18.2746 -18.0958 -18.0928
   -12.5331 -12.5205 -12.4293 -11.6023 -11.5994 -11.4541 -11.4363 -10.9469
   -10.9461  -9.9500  -9.9491  -9.6972  -9.4001  -9.3903  -9.2513  -9.2498
    -9.0637  -9.0620  -8.9252  -8.3440  -8.3433  -7.9250  -7.9191  -7.8806
    -7.8649  -7.7925  -7.6080  -7.6003  -7.1221  -7.1082  -6.9814  -6.9097
    -6.9078  -6.8616  -6.5519  -6.5509  -6.2794  -5.3407  -5.3335  -5.1646
    -5.0871  -4.8206  -4.7923  -4.7653  -4.6310  -4.6015  -4.3532  -4.3474
    -0.3102   0.7084   1.0371   1.1205   1.2446   1.4504   1.4874   1.5531
     1.7730   1.8762   1.9830   2.0378   2.0694   2.1490   2.2927   2.3655
     2.4385   2.4782   2.4978   2.5654   2.6064   2.6360

          k =-0.0000-0.1925 0.0000 ( 59226 PWs)   bands (ev):

   -68.1061 -68.1060 -39.6090 -39.6087 -39.5990 -39.5985 -39.5955 -39.5953
   -21.3336 -20.5511 -20.3795 -20.3537 -20.0109 -19.9912 -19.8295 -18.7547
   -18.7328 -18.4218 -18.3833 -18.3695 -18.2769 -18.2744 -18.1066 -18.0867
   -12.5321 -12.5221 -12.4287 -11.6094 -11.5936 -11.4506 -11.4372 -10.9505
   -10.9441  -9.9539  -9.9450  -9.6977  -9.4005  -9.3889  -9.2525  -9.2491
    -9.0631  -9.0630  -8.9256  -8.3464  -8.3398  -7.9260  -7.9189  -7.8706
    -7.8591  -7.7938  -7.6486  -7.5817  -7.1294  -7.0836  -6.9799  -6.9140
    -6.9050  -6.8708  -6.5563  -6.5461  -6.2798  -5.3579  -5.3088  -5.1651
    -5.0866  -4.8575  -4.7906  -4.7528  -4.6110  -4.5989  -4.3756  -4.3324
    -0.3323   0.8443   1.0712   1.0821   1.2552   1.4134   1.4506   1.5524
     1.7311   1.8724   1.9249   1.9328   2.0235   2.2139   2.3107   2.3272
     2.3855   2.5048   2.5423   2.5883   2.6291   2.6754

          k = 0.5000-0.8660 0.0000 ( 59292 PWs)   bands (ev):

   -68.1062 -68.1060 -39.6090 -39.6087 -39.5990 -39.5985 -39.5955 -39.5953
   -21.0734 -21.0633 -20.4880 -20.4863 -19.4503 -19.4460 -19.4273 -19.4260
   -19.0141 -19.0070 -18.3511 -18.3453 -18.3368 -18.3215 -17.8116 -17.8097
   -12.0973 -12.0897 -12.0864 -12.0741 -11.8994 -11.8961 -11.3531 -11.3465
   -10.2564 -10.2549 -10.1562 -10.1542 -10.1496 -10.1478  -8.5797  -8.5723
    -8.5696  -8.5669  -8.5587  -8.5565  -7.8859  -7.8844  -7.8822  -7.8814
    -7.8425  -7.8407  -7.7771  -7.7724  -7.5145  -7.5060  -6.6320  -6.6302
    -6.3549  -6.3440  -6.3050  -6.3007  -6.2130  -6.2070  -5.7150  -5.7077
    -5.5693  -5.5618  -4.7366  -4.7241  -4.7110  -4.6891  -3.8876  -3.8835
    -0.1018   0.2807   1.0267   1.0419   1.4083   1.4358   1.4945   1.5571
     1.7697   1.7755   2.0464   2.0684   2.1832   2.2394   2.3844   2.4010
     2.4374   2.4449   2.5350   2.5467   2.5510   2.6347

          k =-1.0000 0.0000 0.0000 ( 59292 PWs)   bands (ev):

   -68.1062 -68.1060 -39.6090 -39.6087 -39.5990 -39.5986 -39.5955 -39.5953
   -21.0932 -21.0409 -20.5013 -20.4770 -19.4643 -19.4290 -19.4262 -19.4244
   -19.0324 -18.9914 -18.3911 -18.3433 -18.3169 -18.3032 -17.8217 -17.8014
   -12.1278 -12.0935 -12.0680 -12.0547 -11.9077 -11.8887 -11.3704 -11.3308
   -10.2711 -10.2533 -10.1568 -10.1535 -10.1446 -10.1412  -8.6195  -8.5977
    -8.5751  -8.5502  -8.5401  -8.5105  -7.9020  -7.8950  -7.8800  -7.8727
    -7.8355  -7.8339  -7.8091  -7.7499  -7.5346  -7.4879  -6.6378  -6.6227
    -6.3803  -6.3151  -6.3013  -6.2937  -6.2294  -6.1935  -5.7392  -5.6904
    -5.5865  -5.5444  -4.8049  -4.7103  -4.6858  -4.6610  -3.9069  -3.8661
    -0.2659   0.7900   1.0110   1.0944   1.2406   1.3680   1.4129   1.6023
     1.6030   1.6708   1.8772   2.1423   2.1908   2.2902   2.3063   2.3543
     2.4330   2.4886   2.5190   2.5656   2.6285   2.6372

     the Fermi energy is    -0.8474 ev

!    total energy              =   -1133.81296937 Ry

     total all-electron energy =     -6753.488672 Ry
     estimated scf accuracy    <       0.00000002 Ry
     smearing contrib. (-TS)   =      -0.00000000 Ry
     internal energy E=F+TS    =   -1133.81296937 Ry

     The total energy is F=E-TS. E is the sum of the following terms:
     one-electron contribution =   -3916.39975814 Ry
     hartree contribution      =    1986.77032331 Ry
     xc contribution           =    -186.19971509 Ry
     ewald contribution        =    1341.38383842 Ry
     DFT-D3 Dispersion         =      -0.13950757 Ry
     one-center paw contrib.   =    -359.22815031 Ry

     total magnetization       =    12.00 Bohr mag/cell
     absolute magnetization    =    12.00 Bohr mag/cell

     convergence has been achieved in  12 iterations

     Writing output data file ./mytmp/Crdimer0.22-0.4.save/
 
     init_run     :     18.67s CPU     19.83s WALL (       1 calls)
     electrons    :    443.20s CPU    470.39s WALL (       1 calls)

     Called by init_run:
     wfcinit      :     13.87s CPU     14.65s WALL (       1 calls)
     potinit      :      1.53s CPU      1.59s WALL (       1 calls)
     hinit0       :      1.54s CPU      1.61s WALL (       1 calls)

     Called by electrons:
     c_bands      :    359.40s CPU    379.64s WALL (      12 calls)
     sum_band     :     64.69s CPU     68.95s WALL (      12 calls)
     v_of_rho     :      4.01s CPU      4.24s WALL (      13 calls)
     newd         :      8.32s CPU     10.83s WALL (      13 calls)
     PAW_pot      :      6.38s CPU      6.44s WALL (      13 calls)
     mix_rho      :      0.83s CPU      0.84s WALL (      12 calls)

     Called by c_bands:
     init_us_2    :      4.34s CPU      4.38s WALL (     750 calls)
     cegterg      :    348.83s CPU    369.01s WALL (     360 calls)

     Called by *egterg:
     cdiaghg      :     22.32s CPU     35.28s WALL (    2431 calls)
     h_psi        :    225.91s CPU    232.92s WALL (    2461 calls)
     s_psi        :     24.72s CPU     24.76s WALL (    2461 calls)
     g_psi        :      0.68s CPU      0.70s WALL (    2071 calls)

     Called by h_psi:
     h_psi:calbec :     25.46s CPU     25.99s WALL (    2461 calls)
     vloc_psi     :    173.38s CPU    179.79s WALL (    2461 calls)
     add_vuspsi   :     25.08s CPU     25.15s WALL (    2461 calls)

     General routines
     calbec       :     33.38s CPU     34.10s WALL (    2821 calls)
     fft          :      3.66s CPU      4.26s WALL (     319 calls)
     ffts         :      0.10s CPU      0.10s WALL (      50 calls)
     fftw         :    175.98s CPU    182.52s WALL (  228342 calls)
     interpolate  :      0.35s CPU      0.38s WALL (      26 calls)
 
     Parallel routines
     fft_scatt_xy :     27.70s CPU     28.58s WALL (  228711 calls)
     fft_scatt_yz :     67.59s CPU     71.14s WALL (  228711 calls)
 
     PWSCF        :   7m43.92s CPU   8m14.30s WALL

 
   This run was terminated on:  21:37: 2  29Mar2021            

=------------------------------------------------------------------------------=
   JOB DONE.
=------------------------------------------------------------------------------=
