
     Program PWSCF v.6.7MaX starts on 30Mar2021 at  0:11:47 

     This program is part of the open-source Quantum ESPRESSO suite
     for quantum simulation of materials; please cite
         "P. Giannozzi et al., J. Phys.:Condens. Matter 21 395502 (2009);
         "P. Giannozzi et al., J. Phys.:Condens. Matter 29 465901 (2017);
          URL http://www.quantum-espresso.org", 
     in publications or presentations arising from this work. More details at
     http://www.quantum-espresso.org/quote

     Parallel version (MPI), running on    48 processors

     MPI processes distributed on     1 nodes
     R & G space division:  proc/nbgrp/npool/nimage =      48
     Reading input from Crdimer0.28-0.5.scf.in

     Current dimensions of program PWSCF are:
     Max number of different atomic species (ntypx) = 10
     Max number of k-points (npk) =  40000
     Max angular momentum in pseudopotentials (lmaxx) =  3
     file N.pbe-n-kjpaw_psl.1.0.0.UPF: wavefunction(s)  2S renormalized
     file Cr.pbe-spn-kjpaw_psl.1.0.0.UPF: wavefunction(s)  3S 3P 3D renormalized
     file Cr.pbe-spn-kjpaw_psl.1.0.0.UPF: wavefunction(s)  3S 3P 3D renormalized

     --------------------------------------------
     Parameters for DFT-D3 Dispersion Correction:
     --------------------------------------------
       Reference C6 values for interpolation: 

         atom   Coordination number   C6
         B          0.000           214.36
         B          0.971           150.74
         B          1.944           106.23
         B          2.913            62.89
         B          4.586            56.06
         N          0.000            50.54
         N          0.994            44.25
         N          2.014            39.35
         N          2.990            31.16
         Cr1        0.000          1381.48
         Cr1        1.827           571.38
         Cr1       10.619           306.69
         Cr2        0.000          1381.48
         Cr2        1.827           571.38
         Cr2       10.619           306.69

       Values used:

         atom   Coordination number  R0_AB[au]  C6      C8
         B          3.339            3.039     62.89   2505.93
         B          3.337            3.039     62.89   2505.96
         B          3.335            3.039     62.89   2506.01
         B          3.335            3.039     62.89   2506.01
         B          3.337            3.039     62.89   2505.96
         B          3.339            3.039     62.89   2505.93
         N          3.137            2.478     31.22    688.67
         N          3.141            2.478     31.22    688.64
         N          3.134            2.478     31.22    688.70
         N          3.134            2.478     31.22    688.70
         N          3.135            2.478     31.22    688.69
         N          3.148            2.478     31.21    688.57
         N          3.143            2.478     31.21    688.61
         N          3.134            2.478     31.22    688.70
         N          3.135            2.478     31.22    688.69
         B          3.381            3.039     62.86   2504.69
         B          3.337            3.039     62.89   2505.96
         B          3.339            3.039     62.89   2505.93
         B          3.337            3.039     62.89   2505.96
         B          3.339            3.039     62.89   2505.93
         B          3.381            3.039     62.86   2504.69
         N          3.143            2.478     31.21    688.61
         B          3.344            3.039     62.89   2505.80
         B          3.338            3.039     62.89   2505.93
         B          3.335            3.039     62.89   2506.00
         N          3.148            2.478     31.21    688.57
         N          3.141            2.478     31.22    688.64
         N          3.135            2.478     31.22    688.69
         N          3.135            2.478     31.22    688.69
         N          3.134            2.478     31.22    688.70
         N          3.134            2.478     31.22    688.70
         B          3.335            3.039     62.89   2506.00
         Cr1        0.109            3.252   1381.48 127494.69
         Cr2        0.109            3.252   1381.48 127494.69

         Molecular C6 ( Ry / a.u.^6 ) =     79164.15


     Subspace diagonalization in iterative solution of the eigenvalue problem:
     one sub-group per band group will be used
     scalapack distributed-memory algorithm (size of sub-group:  6*  6 procs)

 
     Parallelization info
     --------------------
     sticks:   dense  smooth     PW     G-vecs:    dense   smooth      PW
     Min         235      98     26                36277     9874    1408
     Max         236      99     27                36282     9883    1425
     Sum       11311    4741   1285              1741401   474235   68095
 


     bravais-lattice index     =            4
     lattice parameter (alat)  =      18.9275  a.u.
     unit-cell volume          =   10553.3021 (a.u.)^3
     number of atoms/cell      =           34
     number of atomic types    =            4
     number of electrons       =       156.00
     number of Kohn-Sham states=           94
     kinetic-energy cutoff     =      48.0000  Ry
     charge density cutoff     =     457.0000  Ry
     scf convergence threshold =      1.0E-07
     mixing beta               =       0.5000
     number of iterations used =            8  plain     mixing
     Exchange-correlation= SLA  PW   PBX  PBC
                           (   1   4   3   4   0   0   0)

     celldm(1)=  18.927497  celldm(2)=   0.000000  celldm(3)=   1.797125
     celldm(4)=   0.000000  celldm(5)=   0.000000  celldm(6)=   0.000000

     crystal axes: (cart. coord. in units of alat)
               a(1) = (   1.000000   0.000000   0.000000 )  
               a(2) = (  -0.500000   0.866025   0.000000 )  
               a(3) = (   0.000000   0.000000   1.797125 )  

     reciprocal axes: (cart. coord. in units 2 pi/alat)
               b(1) = (  1.000000  0.577350  0.000000 )  
               b(2) = (  0.000000  1.154701  0.000000 )  
               b(3) = (  0.000000  0.000000  0.556444 )  


     PseudoPot. # 1 for B  read from file:
     /home/sf05/q-e-qe-6.7MaX-Release/pseudo/B.pbe-n-kjpaw_psl.1.0.0.UPF
     MD5 check sum: d9c678ba5d3b2fd7b74e61139c9288d8
     Pseudo is Projector augmented-wave + core cor, Zval =  3.0
     Generated using "atomic" code by A. Dal Corso  v.5.1.2
     Shape of augmentation charge: PSQ
     Using radial grid of 1059 points,  4 beta functions with: 
                l(1) =   0
                l(2) =   0
                l(3) =   1
                l(4) =   1
     Q(r) pseudized with 0 coefficients 


     PseudoPot. # 2 for N  read from file:
     /home/sf05/q-e-qe-6.7MaX-Release/pseudo/N.pbe-n-kjpaw_psl.1.0.0.UPF
     MD5 check sum: e0e4e94a9c4025c5b51bd7d8793849bd
     Pseudo is Projector augmented-wave + core cor, Zval =  5.0
     Generated using "atomic" code by A. Dal Corso  v.5.1.2
     Shape of augmentation charge: PSQ
     Using radial grid of 1085 points,  4 beta functions with: 
                l(1) =   0
                l(2) =   0
                l(3) =   1
                l(4) =   1
     Q(r) pseudized with 0 coefficients 


     PseudoPot. # 3 for Cr read from file:
     /home/sf05/q-e-qe-6.7MaX-Release/pseudo/Cr.pbe-spn-kjpaw_psl.1.0.0.UPF
     MD5 check sum: 198f1a2427a48552563eee314eba32ba
     Pseudo is Projector augmented-wave + core cor, Zval = 14.0
     Generated using &quot;atomic&quot; code by A. Dal Corso  v.6.3
     Shape of augmentation charge: PSQ
     Using radial grid of 1183 points,  6 beta functions with: 
                l(1) =   0
                l(2) =   0
                l(3) =   1
                l(4) =   1
                l(5) =   2
                l(6) =   2
     Q(r) pseudized with 0 coefficients 


     PseudoPot. # 4 for Cr read from file:
     /home/sf05/q-e-qe-6.7MaX-Release/pseudo/Cr.pbe-spn-kjpaw_psl.1.0.0.UPF
     MD5 check sum: 198f1a2427a48552563eee314eba32ba
     Pseudo is Projector augmented-wave + core cor, Zval = 14.0
     Generated using &quot;atomic&quot; code by A. Dal Corso  v.6.3
     Shape of augmentation charge: PSQ
     Using radial grid of 1183 points,  6 beta functions with: 
                l(1) =   0
                l(2) =   0
                l(3) =   1
                l(4) =   1
                l(5) =   2
                l(6) =   2
     Q(r) pseudized with 0 coefficients 


     atomic species   valence    mass     pseudopotential
        B              3.00    10.81100     B ( 1.00)
        N              5.00    14.00674     N ( 1.00)
        Cr1           14.00    51.99610     Cr( 1.00)
        Cr2           14.00    51.99610     Cr( 1.00)

     Starting magnetic structure 
     atomic species   magnetization
        B            0.000
        N            0.000
        Cr1          1.000
        Cr2          1.000

     No symmetry found



   Cartesian axes

     site n.     atom                  positions (alat units)
         1           B   tau(   1) = (  -0.1250000   0.2165064   0.8985623  )
         2           B   tau(   2) = (   0.3750000   0.6495191   0.8985623  )
         3           B   tau(   3) = (   0.2500000   0.0000000   0.8985623  )
         4           B   tau(   4) = (   0.7500000   0.0000000   0.8985623  )
         5           B   tau(   5) = (   0.1250000   0.2165064   0.8985623  )
         6           B   tau(   6) = (  -0.3750000   0.6495191   0.8985623  )
         7           N   tau(   7) = (   0.7500005   0.2886748   0.8985623  )
         8           N   tau(   8) = (   0.3750005   0.5051812   0.8985623  )
         9           N   tau(   9) = (   0.3750005   0.0721685   0.8985623  )
        10           N   tau(  10) = (   0.6250005   0.0721685   0.8985623  )
        11           N   tau(  11) = (   0.2500005   0.2886748   0.8985623  )
        12           N   tau(  12) = (   0.6250005   0.5051812   0.8985623  )
        13           N   tau(  13) = (   0.0000005   0.2886748   0.8985623  )
        14           N   tau(  14) = (   0.2500005   0.7216875   0.8985623  )
        15           N   tau(  15) = (  -0.2499995   0.7216875   0.8985623  )
        16           B   tau(  16) = (   0.0000000   0.4330127   0.8985623  )
        17           B   tau(  17) = (   0.1250000   0.6495191   0.8985623  )
        18           B   tau(  18) = (  -0.1250000   0.6495191   0.8985623  )
        19           B   tau(  19) = (   0.3750000   0.2165064   0.8985623  )
        20           B   tau(  20) = (   0.6250000   0.2165064   0.8985623  )
        21           B   tau(  21) = (   0.5000000   0.4330127   0.8985623  )
        22           N   tau(  22) = (   0.5000005   0.2886748   0.8985623  )
        23           B   tau(  23) = (  -0.2500000   0.4330127   0.8985623  )
        24           B   tau(  24) = (   0.2500000   0.4330127   0.8985623  )
        25           B   tau(  25) = (   0.5000000   0.0000000   0.8985623  )
        26           N   tau(  26) = (  -0.1249995   0.5051812   0.8985623  )
        27           N   tau(  27) = (   0.1250005   0.5051812   0.8985623  )
        28           N   tau(  28) = (   0.0000005   0.7216875   0.8985623  )
        29           N   tau(  29) = (   0.5000005   0.7216875   0.8985623  )
        30           N   tau(  30) = (   0.1250005   0.0721685   0.8985623  )
        31           N   tau(  31) = (   0.8750005   0.0721685   0.8985623  )
        32           B   tau(  32) = (   0.0000000   0.0000000   0.8985623  )
        33           Cr1 tau(  33) = (   0.5300000   0.4330127   1.2040735  )
        34           Cr2 tau(  34) = (  -0.0300000   0.4330127   1.2040735  )

     number of k points=    15  Gaussian smearing, width (Ry)=  0.0000
                       cart. coord. in units 2pi/alat
        k(    1) = (   0.1666667   0.2886751   0.0000000), wk =   0.0740741
        k(    2) = (   0.1666667  -0.4811252   0.0000000), wk =   0.0740741
        k(    3) = (   0.1666667  -0.0962250   0.0000000), wk =   0.0740741
        k(    4) = (  -0.5000000  -0.8660254   0.0000000), wk =   0.0370370
        k(    5) = (  -0.1666667   0.2886751   0.0000000), wk =   0.0740741
        k(    6) = (   0.3333333   0.0000000   0.0000000), wk =   0.0740741
        k(    7) = (  -0.1666667  -0.4811252   0.0000000), wk =   0.0740741
        k(    8) = (   0.5000000  -0.0962250   0.0000000), wk =   0.0740741
        k(    9) = (  -0.3333333  -0.3849002   0.0000000), wk =   0.0740741
        k(   10) = (   0.5000000   0.0962250   0.0000000), wk =   0.0740741
        k(   11) = (  -0.3333333   0.3849002   0.0000000), wk =   0.0740741
        k(   12) = (  -0.1666667  -0.0962250   0.0000000), wk =   0.0740741
        k(   13) = (  -0.0000000  -0.1924501   0.0000000), wk =   0.0740741
        k(   14) = (   0.5000000  -0.8660254   0.0000000), wk =   0.0370370
        k(   15) = (  -1.0000000   0.0000000   0.0000000), wk =   0.0370370

     Dense  grid:  1741401 G-vectors     FFT dimensions: ( 135, 135, 240)

     Smooth grid:   474235 G-vectors     FFT dimensions: (  90,  90, 160)

     Estimated max dynamical RAM per process >     218.62 MB

     Estimated total dynamical RAM >      10.25 GB
     Generating pointlists ...
     new r_m :   0.0595 (alat units)  1.1269 (a.u.) for type    1
     new r_m :   0.0595 (alat units)  1.1269 (a.u.) for type    2
     new r_m :   0.1266 (alat units)  2.3968 (a.u.) for type    3
     new r_m :   0.1266 (alat units)  2.3968 (a.u.) for type    4

     Initial potential from superposition of free atoms

     starting charge  155.99382, renormalised to  156.00000

     negative rho (up, down):  6.530E-03 4.655E-04
     Starting wfcs are  148 randomized atomic wfcs
     Checking if some PAW data can be deallocated... 

     total cpu time spent up to now is       20.6 secs

     Self-consistent Calculation

     iteration #  1     ecut=    48.00 Ry     beta= 0.50
     Davidson diagonalization with overlap
     ethr =  1.00E-02,  avg # of iterations =  2.9

     negative rho (up, down):  4.713E-03 2.942E-03

     total cpu time spent up to now is       64.3 secs

     total energy              =   -1130.76509987 Ry
     estimated scf accuracy    <      11.37785776 Ry

     total magnetization       =    12.00 Bohr mag/cell
     absolute magnetization    =    12.14 Bohr mag/cell

     iteration #  2     ecut=    48.00 Ry     beta= 0.50
     Davidson diagonalization with overlap
     ethr =  7.29E-03,  avg # of iterations =  2.8

     negative rho (up, down):  6.814E-03 1.035E-02

     total cpu time spent up to now is      105.2 secs

     total energy              =   -1133.16391063 Ry
     estimated scf accuracy    <       3.01243086 Ry

     total magnetization       =    12.00 Bohr mag/cell
     absolute magnetization    =    12.01 Bohr mag/cell

     iteration #  3     ecut=    48.00 Ry     beta= 0.50
     Davidson diagonalization with overlap
     ethr =  1.93E-03,  avg # of iterations =  6.3

     negative rho (up, down):  3.810E-03 6.822E-03

     total cpu time spent up to now is      145.0 secs

     total energy              =   -1133.65637493 Ry
     estimated scf accuracy    <       0.57644232 Ry

     total magnetization       =    12.00 Bohr mag/cell
     absolute magnetization    =    12.05 Bohr mag/cell

     iteration #  4     ecut=    48.00 Ry     beta= 0.50
     Davidson diagonalization with overlap
     ethr =  3.70E-04,  avg # of iterations =  8.3

     negative rho (up, down):  7.049E-03 1.448E-02

     total cpu time spent up to now is      187.5 secs

     total energy              =   -1133.79058656 Ry
     estimated scf accuracy    <       0.27905381 Ry

     total magnetization       =    12.00 Bohr mag/cell
     absolute magnetization    =    12.00 Bohr mag/cell

     iteration #  5     ecut=    48.00 Ry     beta= 0.50
     Davidson diagonalization with overlap
     ethr =  1.79E-04,  avg # of iterations =  9.0

     negative rho (up, down):  4.505E-03 1.002E-02

     total cpu time spent up to now is      230.2 secs

     total energy              =   -1133.80847136 Ry
     estimated scf accuracy    <       0.01618573 Ry

     total magnetization       =    12.00 Bohr mag/cell
     absolute magnetization    =    12.00 Bohr mag/cell

     iteration #  6     ecut=    48.00 Ry     beta= 0.50
     Davidson diagonalization with overlap
     c_bands:  1 eigenvalues not converged
     c_bands:  1 eigenvalues not converged
     c_bands:  1 eigenvalues not converged
     c_bands:  2 eigenvalues not converged
     ethr =  1.04E-05,  avg # of iterations = 12.8

     negative rho (up, down):  3.355E-03 7.801E-03

     total cpu time spent up to now is      293.8 secs

     total energy              =   -1133.81171653 Ry
     estimated scf accuracy    <       0.00516180 Ry

     total magnetization       =    12.00 Bohr mag/cell
     absolute magnetization    =    12.01 Bohr mag/cell

     iteration #  7     ecut=    48.00 Ry     beta= 0.50
     Davidson diagonalization with overlap
     c_bands:  1 eigenvalues not converged
     ethr =  3.31E-06,  avg # of iterations =  8.7

     negative rho (up, down):  3.016E-03 7.496E-03

     total cpu time spent up to now is      340.0 secs

     total energy              =   -1133.81239440 Ry
     estimated scf accuracy    <       0.00054996 Ry

     total magnetization       =    12.00 Bohr mag/cell
     absolute magnetization    =    12.01 Bohr mag/cell

     iteration #  8     ecut=    48.00 Ry     beta= 0.50
     Davidson diagonalization with overlap
     ethr =  3.53E-07,  avg # of iterations =  4.6

     negative rho (up, down):  2.890E-03 7.329E-03

     total cpu time spent up to now is      378.5 secs

     total energy              =   -1133.81251341 Ry
     estimated scf accuracy    <       0.00004571 Ry

     total magnetization       =    12.00 Bohr mag/cell
     absolute magnetization    =    12.00 Bohr mag/cell

     iteration #  9     ecut=    48.00 Ry     beta= 0.50
     Davidson diagonalization with overlap
     ethr =  2.93E-08,  avg # of iterations =  5.0

     negative rho (up, down):  2.855E-03 7.299E-03

     total cpu time spent up to now is      423.6 secs

     total energy              =   -1133.81257831 Ry
     estimated scf accuracy    <       0.00001822 Ry

     total magnetization       =    12.00 Bohr mag/cell
     absolute magnetization    =    12.00 Bohr mag/cell

     iteration # 10     ecut=    48.00 Ry     beta= 0.50
     Davidson diagonalization with overlap
     ethr =  1.17E-08,  avg # of iterations =  2.0

     negative rho (up, down):  2.844E-03 7.296E-03

     total cpu time spent up to now is      458.0 secs

     total energy              =   -1133.81260641 Ry
     estimated scf accuracy    <       0.00000187 Ry

     total magnetization       =    12.00 Bohr mag/cell
     absolute magnetization    =    12.00 Bohr mag/cell

     iteration # 11     ecut=    48.00 Ry     beta= 0.50
     Davidson diagonalization with overlap
     ethr =  1.20E-09,  avg # of iterations =  4.3

     negative rho (up, down):  2.841E-03 7.297E-03

     total cpu time spent up to now is      503.7 secs

     total energy              =   -1133.81261330 Ry
     estimated scf accuracy    <       0.00000061 Ry

     total magnetization       =    12.00 Bohr mag/cell
     absolute magnetization    =    12.00 Bohr mag/cell

     iteration # 12     ecut=    48.00 Ry     beta= 0.50
     Davidson diagonalization with overlap
     ethr =  3.89E-10,  avg # of iterations =  2.3

     negative rho (up, down):  2.839E-03 7.302E-03
 
     Magnetic moment per site:
     atom:    1    charge:    0.8804    magn:    0.0005    constr:    0.0000
     atom:    2    charge:    0.8804    magn:    0.0004    constr:    0.0000
     atom:    3    charge:    0.8803    magn:    0.0001    constr:    0.0000
     atom:    4    charge:    0.8803    magn:    0.0000    constr:    0.0000
     atom:    5    charge:    0.8804    magn:    0.0006    constr:    0.0000
     atom:    6    charge:    0.8804    magn:    0.0007    constr:    0.0000
     atom:    7    charge:    2.8607    magn:    0.0037    constr:    0.0000
     atom:    8    charge:    2.8606    magn:    0.0065    constr:    0.0000
     atom:    9    charge:    2.8609    magn:    0.0003    constr:    0.0000
     atom:   10    charge:    2.8609    magn:    0.0004    constr:    0.0000
     atom:   11    charge:    2.8608    magn:    0.0016    constr:    0.0000
     atom:   12    charge:    2.8606    magn:    0.0096    constr:    0.0000
     atom:   13    charge:    2.8596    magn:    0.0076    constr:    0.0000
     atom:   14    charge:    2.8599    magn:    0.0003    constr:    0.0000
     atom:   15    charge:    2.8599    magn:    0.0006    constr:    0.0000
     atom:   16    charge:    0.8810    magn:    0.0004    constr:    0.0000
     atom:   17    charge:    0.8800    magn:    0.0004    constr:    0.0000
     atom:   18    charge:    0.8801    magn:    0.0007    constr:    0.0000
     atom:   19    charge:    0.8798    magn:    0.0006    constr:    0.0000
     atom:   20    charge:    0.8798    magn:    0.0005    constr:    0.0000
     atom:   21    charge:    0.8807    magn:    0.0004    constr:    0.0000
     atom:   22    charge:    2.8608    magn:    0.0076    constr:    0.0000
     atom:   23    charge:    0.8800    magn:    0.0009    constr:    0.0000
     atom:   24    charge:    0.8799    magn:    0.0007    constr:    0.0000
     atom:   25    charge:    0.8800    magn:    0.0002    constr:    0.0000
     atom:   26    charge:    2.8595    magn:    0.0096    constr:    0.0000
     atom:   27    charge:    2.8595    magn:    0.0065    constr:    0.0000
     atom:   28    charge:    2.8597    magn:    0.0011    constr:    0.0000
     atom:   29    charge:    2.8595    magn:    0.0011    constr:    0.0000
     atom:   30    charge:    2.8596    magn:    0.0003    constr:    0.0000
     atom:   31    charge:    2.8596    magn:    0.0004    constr:    0.0000
     atom:   32    charge:    0.8802    magn:    0.0002    constr:    0.0000
     atom:   33    charge:   12.7666    magn:    4.7615    constr:    0.0000
     atom:   34    charge:   12.7667    magn:    4.7617    constr:    0.0000

     total cpu time spent up to now is      540.8 secs

     End of self-consistent calculation

 ------ SPIN UP ------------


          k = 0.1667 0.2887 0.0000 ( 59267 PWs)   bands (ev):

   -72.4788 -72.4779 -43.9425 -43.9416 -43.9371 -43.9362 -43.9361 -43.9354
   -21.2609 -20.6793 -20.6652 -20.1196 -20.1094 -19.6064 -19.5923 -19.1138
   -18.7152 -18.7017 -18.4729 -18.4637 -18.2092 -18.1014 -18.0907 -17.8639
   -12.4979 -12.2223 -12.2133 -11.8359 -11.8301 -11.6718 -11.2091 -11.1995
   -10.4059 -10.3816 -10.1340 -10.1263  -9.6044  -9.6003  -8.8516  -8.8414
    -8.8357  -8.7837  -8.7714  -8.6103  -8.2108  -8.0647  -8.0351  -7.8429
    -7.8403  -7.4537  -7.4500  -7.3109  -7.2600  -7.2237  -7.2180  -6.9757
    -6.9676  -6.5816  -6.5538  -6.1680  -6.1659  -5.8873  -5.4325  -5.3106
    -5.2880  -5.2139  -4.9347  -4.9091  -4.5223  -4.3732  -4.3547  -3.9940
    -2.3482  -1.6003  -1.4474  -1.4321  -1.4224  -1.3832  -1.3711  -1.3687
    -1.3545  -1.3404  -1.3173  -1.2435   0.6194   0.7817   0.9745   1.2012
     1.2329   1.4377   1.4874   1.5544   1.5843   1.6231

          k = 0.1667-0.4811 0.0000 ( 59291 PWs)   bands (ev):

   -72.4788 -72.4779 -43.9425 -43.9416 -43.9371 -43.9363 -43.9361 -43.9354
   -21.1304 -20.9268 -20.7365 -20.1747 -19.8185 -19.4809 -19.3314 -19.1885
   -19.0289 -18.7930 -18.6545 -18.5590 -18.1626 -18.1046 -17.9362 -17.7382
   -12.3619 -12.1270 -12.0580 -11.9207 -11.6951 -11.6708 -11.5666 -10.9558
   -10.9039 -10.6376 -10.5372  -9.8739  -9.7072  -9.3500  -9.1247  -8.6828
    -8.6362  -8.5671  -8.4032  -8.3825  -8.1754  -8.1402  -8.0779  -8.0624
    -7.7015  -7.6369  -7.5083  -7.4874  -7.3717  -7.1848  -7.0816  -6.8758
    -6.6359  -6.4051  -6.1915  -6.1714  -5.9888  -5.9430  -5.7973  -5.7598
    -5.4653  -5.4147  -5.2223  -5.0574  -4.4589  -4.3644  -4.1043  -3.7815
    -2.3399  -1.6069  -1.4456  -1.4318  -1.4205  -1.3809  -1.3750  -1.3699
    -1.3545  -1.3401  -1.3171  -1.2436   0.6043   0.6451   1.0266   1.0471
     1.1730   1.2753   1.4056   1.7390   1.8324   1.9202

          k = 0.1667-0.0962 0.0000 ( 59226 PWs)   bands (ev):

   -72.4788 -72.4779 -43.9425 -43.9416 -43.9370 -43.9362 -43.9361 -43.9353
   -21.3274 -20.5495 -20.3588 -20.3542 -20.0027 -19.9943 -19.8201 -18.7437
   -18.7362 -18.3902 -18.3820 -18.3700 -18.2844 -18.2737 -18.0910 -18.0866
   -12.5234 -12.5139 -12.4218 -11.5945 -11.5903 -11.4420 -11.4321 -10.9396
   -10.9379  -9.9430  -9.9403  -9.6897  -9.3884  -9.3864  -9.2441  -9.2419
    -9.0560  -9.0543  -8.9385  -8.3376  -8.3353  -7.9149  -7.9124  -7.8976
    -7.8591  -7.7840  -7.6194  -7.6053  -7.1407  -7.1152  -6.9728  -6.9019
    -6.8988  -6.8664  -6.5447  -6.5420  -6.2712  -5.3578  -5.3396  -5.1570
    -5.0790  -4.8207  -4.8147  -4.7672  -4.6308  -4.6221  -4.3629  -4.3524
    -2.3566  -1.5936  -1.4491  -1.4325  -1.4243  -1.3873  -1.3696  -1.3650
    -1.3541  -1.3408  -1.3174  -1.2433   0.6355   0.9132   0.9544   1.2022
     1.2595   1.3325   1.4578   1.5428   1.5613   1.6852

          k =-0.5000-0.8660 0.0000 ( 59292 PWs)   bands (ev):

   -72.4788 -72.4779 -43.9425 -43.9416 -43.9371 -43.9363 -43.9361 -43.9354
   -21.0699 -21.0544 -20.4833 -20.4786 -19.4419 -19.4314 -19.4297 -19.4231
   -19.0109 -18.9987 -18.3455 -18.3396 -18.3301 -18.3180 -17.8078 -17.8031
   -12.0906 -12.0822 -12.0757 -12.0666 -11.8920 -11.8862 -11.3469 -11.3376
   -10.2501 -10.2452 -10.1496 -10.1456 -10.1431 -10.1400  -8.5999  -8.5725
    -8.5644  -8.5588  -8.5540  -8.5498  -7.8789  -7.8760  -7.8734  -7.8721
    -7.8361  -7.8336  -7.7890  -7.7785  -7.5080  -7.4956  -6.6257  -6.6206
    -6.3754  -6.3498  -6.3201  -6.3068  -6.2071  -6.1981  -5.7280  -5.7110
    -5.5633  -5.5515  -4.7425  -4.7370  -4.7127  -4.7044  -3.8983  -3.8869
    -2.2327  -1.7757  -1.4369  -1.4205  -1.4097  -1.3812  -1.3757  -1.3685
    -1.3622  -1.3525  -1.3355  -1.3231   0.9644   1.0104   1.0720   1.2083
     1.3111   1.3326   1.4349   1.5753   1.6342   1.6689

          k =-0.1667 0.2887 0.0000 ( 59267 PWs)   bands (ev):

   -72.4788 -72.4779 -43.9425 -43.9416 -43.9371 -43.9363 -43.9361 -43.9354
   -21.2609 -20.6793 -20.6652 -20.1196 -20.1094 -19.6064 -19.5923 -19.1138
   -18.7153 -18.7016 -18.4729 -18.4637 -18.2092 -18.1015 -18.0907 -17.8640
   -12.4979 -12.2223 -12.2133 -11.8359 -11.8301 -11.6718 -11.2091 -11.1994
   -10.4059 -10.3815 -10.1341 -10.1263  -9.6044  -9.6003  -8.8516  -8.8414
    -8.8357  -8.7838  -8.7714  -8.6103  -8.2109  -8.0647  -8.0351  -7.8429
    -7.8403  -7.4537  -7.4500  -7.3109  -7.2600  -7.2237  -7.2180  -6.9757
    -6.9676  -6.5816  -6.5537  -6.1680  -6.1659  -5.8872  -5.4326  -5.3106
    -5.2880  -5.2139  -4.9347  -4.9090  -4.5224  -4.3732  -4.3547  -3.9940
    -2.3482  -1.6003  -1.4474  -1.4321  -1.4224  -1.3832  -1.3710  -1.3687
    -1.3545  -1.3405  -1.3173  -1.2435   0.6194   0.7817   0.9745   1.2012
     1.2328   1.4377   1.4874   1.5544   1.5844   1.6231

          k = 0.3333 0.0000 0.0000 ( 59267 PWs)   bands (ev):

   -72.4788 -72.4779 -43.9425 -43.9416 -43.9371 -43.9363 -43.9361 -43.9354
   -21.2606 -20.6980 -20.6464 -20.1188 -20.1090 -19.6255 -19.5748 -19.1154
   -18.7273 -18.6856 -18.4740 -18.4641 -18.2055 -18.1201 -18.0775 -17.8633
   -12.4974 -12.2226 -12.2130 -11.8422 -11.8258 -11.6703 -11.2219 -11.1867
   -10.4051 -10.3814 -10.1440 -10.1170  -9.6091  -9.5946  -8.8592  -8.8374
    -8.8290  -8.8002  -8.7567  -8.6107  -8.2122  -8.1172  -7.9818  -7.8418
    -7.8397  -7.4586  -7.4442  -7.3092  -7.2583  -7.2307  -7.2109  -6.9766
    -6.9679  -6.6317  -6.5098  -6.1701  -6.1631  -5.8922  -5.4322  -5.3249
    -5.2659  -5.2142  -4.9333  -4.9125  -4.5142  -4.3955  -4.3422  -3.9938
    -2.2865  -1.6991  -1.4414  -1.4252  -1.4165  -1.3860  -1.3689  -1.3644
    -1.3628  -1.3479  -1.3271  -1.3065   0.9549   0.9976   1.0751   1.2028
     1.3085   1.3255   1.3922   1.5023   1.5452   1.5838

          k =-0.1667-0.4811 0.0000 ( 59291 PWs)   bands (ev):

   -72.4788 -72.4779 -43.9425 -43.9416 -43.9371 -43.9362 -43.9361 -43.9354
   -21.1304 -20.9268 -20.7365 -20.1747 -19.8185 -19.4808 -19.3314 -19.1885
   -19.0289 -18.7930 -18.6545 -18.5590 -18.1626 -18.1046 -17.9362 -17.7382
   -12.3619 -12.1270 -12.0580 -11.9207 -11.6951 -11.6708 -11.5667 -10.9558
   -10.9039 -10.6376 -10.5372  -9.8739  -9.7072  -9.3501  -9.1247  -8.6828
    -8.6362  -8.5672  -8.4031  -8.3825  -8.1754  -8.1402  -8.0779  -8.0625
    -7.7015  -7.6370  -7.5082  -7.4874  -7.3717  -7.1848  -7.0815  -6.8758
    -6.6359  -6.4051  -6.1915  -6.1714  -5.9888  -5.9429  -5.7972  -5.7597
    -5.4653  -5.4147  -5.2223  -5.0574  -4.4589  -4.3644  -4.1043  -3.7815
    -2.3399  -1.6069  -1.4456  -1.4318  -1.4205  -1.3809  -1.3750  -1.3699
    -1.3545  -1.3401  -1.3171  -1.2436   0.6043   0.6451   1.0266   1.0472
     1.1730   1.2753   1.4057   1.7390   1.8324   1.9202

          k = 0.5000-0.0962 0.0000 ( 59291 PWs)   bands (ev):

   -72.4788 -72.4779 -43.9425 -43.9416 -43.9371 -43.9363 -43.9361 -43.9354
   -21.1281 -20.9331 -20.7325 -20.1732 -19.8187 -19.4823 -19.3364 -19.1843
   -19.0298 -18.7936 -18.6460 -18.5642 -18.1527 -18.1183 -17.9336 -17.7380
   -12.3608 -12.1274 -12.0565 -11.9239 -11.7049 -11.6594 -11.5684 -10.9564
   -10.9017 -10.6360 -10.5394  -9.8721  -9.7077  -9.3508  -9.1242  -8.6723
    -8.6367  -8.5649  -8.4167  -8.4041  -8.1734  -8.1191  -8.0882  -8.0533
    -7.6984  -7.6373  -7.5076  -7.4883  -7.3664  -7.1861  -7.0822  -6.8764
    -6.6363  -6.4102  -6.2110  -6.1710  -5.9730  -5.9424  -5.7966  -5.7630
    -5.4662  -5.4125  -5.2018  -5.0716  -4.4383  -4.3900  -4.1006  -3.7818
    -2.2329  -1.7755  -1.4368  -1.4205  -1.4101  -1.3837  -1.3739  -1.3683
    -1.3621  -1.3525  -1.3356  -1.3231   0.9104   0.9921   1.1092   1.1468
     1.2782   1.3396   1.4050   1.4729   1.6200   1.7811

          k =-0.3333-0.3849 0.0000 ( 59291 PWs)   bands (ev):

   -72.4788 -72.4779 -43.9425 -43.9416 -43.9371 -43.9363 -43.9361 -43.9354
   -21.1289 -20.9309 -20.7340 -20.1730 -19.8202 -19.4808 -19.3322 -19.1872
   -19.0322 -18.7921 -18.6473 -18.5635 -18.1546 -18.1160 -17.9337 -17.7381
   -12.3615 -12.1256 -12.0585 -11.9228 -11.6957 -11.6695 -11.5678 -10.9562
   -10.9018 -10.6355 -10.5399  -9.8725  -9.7077  -9.3506  -9.1249  -8.6755
    -8.6356  -8.5671  -8.4074  -8.3998  -8.1747  -8.1266  -8.0784  -8.0640
    -7.6987  -7.6361  -7.5129  -7.4834  -7.3657  -7.1862  -7.0827  -6.8821
    -6.6345  -6.4046  -6.1960  -6.1729  -5.9836  -5.9418  -5.7968  -5.7716
    -5.4661  -5.4079  -5.2018  -5.0721  -4.4404  -4.3883  -4.1000  -3.7817
    -2.2758  -1.7089  -1.4402  -1.4247  -1.4144  -1.3819  -1.3742  -1.3661
    -1.3622  -1.3479  -1.3267  -1.3066   0.7972   0.9452   1.0544   1.0947
     1.2117   1.2854   1.3828   1.4936   1.7286   1.8504

          k = 0.5000 0.0962 0.0000 ( 59291 PWs)   bands (ev):

   -72.4788 -72.4779 -43.9425 -43.9416 -43.9371 -43.9363 -43.9361 -43.9354
   -21.1281 -20.9331 -20.7325 -20.1732 -19.8187 -19.4823 -19.3364 -19.1843
   -19.0298 -18.7936 -18.6460 -18.5642 -18.1527 -18.1183 -17.9336 -17.7380
   -12.3608 -12.1274 -12.0565 -11.9239 -11.7049 -11.6594 -11.5684 -10.9564
   -10.9017 -10.6360 -10.5394  -9.8722  -9.7077  -9.3508  -9.1242  -8.6723
    -8.6367  -8.5650  -8.4167  -8.4040  -8.1734  -8.1191  -8.0882  -8.0532
    -7.6985  -7.6373  -7.5076  -7.4884  -7.3663  -7.1862  -7.0822  -6.8764
    -6.6363  -6.4102  -6.2110  -6.1709  -5.9730  -5.9424  -5.7967  -5.7630
    -5.4662  -5.4126  -5.2018  -5.0716  -4.4383  -4.3900  -4.1006  -3.7818
    -2.2329  -1.7755  -1.4368  -1.4205  -1.4101  -1.3837  -1.3739  -1.3683
    -1.3621  -1.3525  -1.3356  -1.3231   0.9104   0.9921   1.1093   1.1468
     1.2782   1.3396   1.4049   1.4729   1.6201   1.7810

          k =-0.3333 0.3849 0.0000 ( 59291 PWs)   bands (ev):

   -72.4788 -72.4779 -43.9425 -43.9416 -43.9371 -43.9363 -43.9361 -43.9354
   -21.1289 -20.9309 -20.7340 -20.1730 -19.8202 -19.4808 -19.3322 -19.1872
   -19.0321 -18.7921 -18.6473 -18.5635 -18.1546 -18.1160 -17.9337 -17.7381
   -12.3615 -12.1256 -12.0585 -11.9228 -11.6957 -11.6695 -11.5678 -10.9562
   -10.9017 -10.6355 -10.5399  -9.8726  -9.7077  -9.3506  -9.1249  -8.6755
    -8.6356  -8.5671  -8.4074  -8.3998  -8.1748  -8.1266  -8.0784  -8.0640
    -7.6986  -7.6361  -7.5129  -7.4834  -7.3657  -7.1861  -7.0827  -6.8821
    -6.6345  -6.4046  -6.1960  -6.1729  -5.9836  -5.9419  -5.7967  -5.7716
    -5.4660  -5.4079  -5.2018  -5.0721  -4.4404  -4.3883  -4.1000  -3.7817
    -2.2758  -1.7089  -1.4402  -1.4247  -1.4144  -1.3820  -1.3741  -1.3662
    -1.3621  -1.3479  -1.3267  -1.3066   0.7972   0.9452   1.0543   1.0947
     1.2117   1.2854   1.3828   1.4937   1.7287   1.8494

          k =-0.1667-0.0962 0.0000 ( 59226 PWs)   bands (ev):

   -72.4788 -72.4779 -43.9425 -43.9416 -43.9371 -43.9362 -43.9361 -43.9354
   -21.3274 -20.5495 -20.3588 -20.3542 -20.0027 -19.9943 -19.8201 -18.7437
   -18.7362 -18.3902 -18.3820 -18.3700 -18.2844 -18.2736 -18.0910 -18.0866
   -12.5234 -12.5139 -12.4218 -11.5944 -11.5903 -11.4420 -11.4321 -10.9396
   -10.9379  -9.9430  -9.9403  -9.6897  -9.3884  -9.3864  -9.2441  -9.2420
    -9.0560  -9.0543  -8.9385  -8.3376  -8.3353  -7.9149  -7.9124  -7.8976
    -7.8590  -7.7840  -7.6194  -7.6053  -7.1407  -7.1152  -6.9728  -6.9018
    -6.8988  -6.8664  -6.5447  -6.5420  -6.2712  -5.3578  -5.3396  -5.1569
    -5.0791  -4.8207  -4.8147  -4.7673  -4.6308  -4.6221  -4.3629  -4.3524
    -2.3566  -1.5936  -1.4491  -1.4325  -1.4243  -1.3873  -1.3696  -1.3650
    -1.3541  -1.3408  -1.3174  -1.2433   0.6355   0.9132   0.9544   1.2021
     1.2595   1.3325   1.4578   1.5429   1.5613   1.6852

          k =-0.0000-0.1925 0.0000 ( 59226 PWs)   bands (ev):

   -72.4788 -72.4779 -43.9425 -43.9416 -43.9370 -43.9362 -43.9361 -43.9354
   -21.3275 -20.5453 -20.3687 -20.3516 -20.0022 -19.9886 -19.8231 -18.7456
   -18.7312 -18.4042 -18.3887 -18.3661 -18.2699 -18.2699 -18.0975 -18.0845
   -12.5239 -12.5138 -12.4214 -11.5983 -11.5874 -11.4405 -11.4314 -10.9426
   -10.9363  -9.9421  -9.9412  -9.6899  -9.3882  -9.3855  -9.2437  -9.2429
    -9.0565  -9.0539  -8.9393  -8.3369  -8.3355  -7.9139  -7.9128  -7.8770
    -7.8575  -7.7853  -7.6705  -7.5879  -7.1409  -7.0888  -6.9716  -6.9037
    -6.8983  -6.8801  -6.5463  -6.5398  -6.2717  -5.3707  -5.3172  -5.1573
    -5.0789  -4.8418  -4.8304  -4.7671  -4.6091  -4.6070  -4.3830  -4.3415
    -2.3811  -1.5581  -1.4518  -1.4355  -1.4265  -1.3861  -1.3711  -1.3664
    -1.3507  -1.3376  -1.3134  -1.1950   0.4708   0.8395   0.9081   1.1718
     1.2482   1.3703   1.4706   1.5980   1.6434   1.6503

          k = 0.5000-0.8660 0.0000 ( 59292 PWs)   bands (ev):

   -72.4788 -72.4779 -43.9425 -43.9416 -43.9371 -43.9363 -43.9361 -43.9354
   -21.0699 -21.0544 -20.4833 -20.4786 -19.4419 -19.4314 -19.4297 -19.4231
   -19.0109 -18.9986 -18.3455 -18.3396 -18.3301 -18.3179 -17.8078 -17.8031
   -12.0906 -12.0823 -12.0758 -12.0666 -11.8920 -11.8862 -11.3469 -11.3376
   -10.2501 -10.2452 -10.1496 -10.1456 -10.1432 -10.1400  -8.5999  -8.5726
    -8.5643  -8.5588  -8.5540  -8.5497  -7.8789  -7.8760  -7.8733  -7.8721
    -7.8362  -7.8336  -7.7890  -7.7785  -7.5081  -7.4956  -6.6256  -6.6205
    -6.3754  -6.3498  -6.3201  -6.3068  -6.2070  -6.1980  -5.7280  -5.7110
    -5.5634  -5.5516  -4.7424  -4.7370  -4.7127  -4.7043  -3.8983  -3.8869
    -2.2327  -1.7757  -1.4369  -1.4205  -1.4098  -1.3811  -1.3758  -1.3684
    -1.3622  -1.3525  -1.3355  -1.3231   0.9644   1.0104   1.0720   1.2083
     1.3111   1.3327   1.4352   1.5752   1.6341   1.6697

          k =-1.0000 0.0000 0.0000 ( 59292 PWs)   bands (ev):

   -72.4788 -72.4779 -43.9425 -43.9416 -43.9371 -43.9363 -43.9361 -43.9354
   -21.0871 -21.0349 -20.4910 -20.4747 -19.4384 -19.4366 -19.4327 -19.4135
   -19.0258 -18.9853 -18.3803 -18.3504 -18.3065 -18.2962 -17.8126 -17.7998
   -12.1148 -12.0932 -12.0542 -12.0502 -11.8955 -11.8831 -11.3621 -11.3237
   -10.2543 -10.2540 -10.1470 -10.1455 -10.1377 -10.1366  -8.6466  -8.5852
    -8.5710  -8.5415  -8.5322  -8.5075  -7.8890  -7.8821  -7.8757  -7.8724
    -7.8416  -7.8273  -7.8130  -7.7556  -7.5250  -7.4805  -6.6266  -6.6175
    -6.3905  -6.3325  -6.3227  -6.2854  -6.2205  -6.1876  -5.7532  -5.6954
    -5.5784  -5.5367  -4.7971  -4.7763  -4.6654  -4.6603  -3.9097  -3.8773
    -2.3658  -1.5691  -1.4477  -1.4348  -1.4228  -1.3790  -1.3769  -1.3716
    -1.3512  -1.3366  -1.3132  -1.1957   0.4509   0.5799   1.0509   1.0553
     1.1222   1.5309   1.5824   1.5951   1.6252   1.8610

 ------ SPIN DOWN ----------


          k = 0.1667 0.2887 0.0000 ( 59267 PWs)   bands (ev):

   -68.1081 -68.1070 -39.6155 -39.6144 -39.5991 -39.5980 -39.5944 -39.5934
   -21.2533 -20.6712 -20.6586 -20.1112 -20.1030 -19.5984 -19.5858 -19.1062
   -18.7059 -18.6944 -18.4645 -18.4572 -18.2000 -18.0941 -18.0848 -17.8563
   -12.4928 -12.2161 -12.2090 -11.8310 -11.8258 -11.6675 -11.2036 -11.1946
   -10.4002 -10.3762 -10.1282 -10.1213  -9.5991  -9.5954  -8.8352  -8.8305
    -8.8230  -8.7786  -8.7672  -8.6055  -8.2063  -8.0358  -8.0130  -7.8379
    -7.8359  -7.4473  -7.4442  -7.2773  -7.2453  -7.2188  -7.2137  -6.9704
    -6.9636  -6.5563  -6.5345  -6.1630  -6.1611  -5.8635  -5.4268  -5.2818
    -5.2665  -5.2089  -4.9088  -4.8928  -4.4964  -4.3518  -4.3389  -3.9737
    -0.2782   0.6674   1.0446   1.1993   1.3593   1.4041   1.4495   1.5323
     1.5619   1.8101   1.9047   2.1075   2.1887   2.2539   2.3052   2.3664
     2.4357   2.4703   2.5045   2.5998   2.6175   2.6474

          k = 0.1667-0.4811 0.0000 ( 59291 PWs)   bands (ev):

   -68.1081 -68.1070 -39.6155 -39.6144 -39.5991 -39.5980 -39.5944 -39.5934
   -21.1221 -20.9205 -20.7290 -20.1670 -19.8113 -19.4734 -19.3241 -19.1808
   -19.0214 -18.7858 -18.6444 -18.5531 -18.1516 -18.1007 -17.9284 -17.7304
   -12.3567 -12.1218 -12.0533 -11.9160 -11.6908 -11.6658 -11.5618 -10.9505
   -10.8981 -10.6316 -10.5325  -9.8680  -9.7022  -9.3445  -9.1196  -8.6498
    -8.6312  -8.5613  -8.3985  -8.3654  -8.1703  -8.1130  -8.0730  -8.0581
    -7.6963  -7.6322  -7.5032  -7.4833  -7.3453  -7.1794  -7.0769  -6.8526
    -6.6300  -6.3820  -6.1697  -6.1661  -5.9647  -5.9371  -5.7922  -5.7381
    -5.4604  -5.3913  -5.1902  -5.0430  -4.4275  -4.3543  -4.0831  -3.7617
    -0.2406   0.6353   1.0149   1.0930   1.1685   1.2966   1.3384   1.7578
     1.8597   1.8858   2.0448   2.1041   2.2272   2.2756   2.2921   2.3482
     2.4340   2.4678   2.5110   2.5148   2.5437   2.6370

          k = 0.1667-0.0962 0.0000 ( 59226 PWs)   bands (ev):

   -68.1081 -68.1070 -39.6155 -39.6144 -39.5991 -39.5980 -39.5944 -39.5934
   -21.3199 -20.5410 -20.3518 -20.3477 -19.9941 -19.9872 -19.8139 -18.7347
   -18.7284 -18.3812 -18.3748 -18.3622 -18.2754 -18.2672 -18.0840 -18.0803
   -12.5173 -12.5098 -12.4168 -11.5896 -11.5859 -11.4360 -11.4280 -10.9344
   -10.9329  -9.9377  -9.9352  -9.6841  -9.3831  -9.3814  -9.2383  -9.2365
    -9.0508  -9.0495  -8.9118  -8.3317  -8.3296  -7.9099  -7.9080  -7.8662
    -7.8508  -7.7795  -7.5960  -7.5870  -7.1102  -7.0935  -6.9678  -6.8971
    -6.8945  -6.8503  -6.5398  -6.5374  -6.2664  -5.3290  -5.3165  -5.1518
    -5.0739  -4.7971  -4.7915  -4.7461  -4.6083  -4.6013  -4.3427  -4.3347
    -0.3129   0.7009   1.0420   1.1331   1.2485   1.4546   1.5082   1.5653
     1.8303   1.9040   1.9933   2.0275   2.0602   2.1355   2.2942   2.3711
     2.4267   2.4400   2.4870   2.5602   2.6245   2.6460

          k =-0.5000-0.8660 0.0000 ( 59292 PWs)   bands (ev):

   -68.1081 -68.1070 -39.6154 -39.6144 -39.5991 -39.5980 -39.5944 -39.5934
   -21.0615 -21.0476 -20.4761 -20.4718 -19.4323 -19.4234 -19.4225 -19.4168
   -19.0029 -18.9923 -18.3359 -18.3316 -18.3222 -18.3125 -17.8001 -17.7958
   -12.0839 -12.0774 -12.0703 -12.0629 -11.8874 -11.8822 -11.3416 -11.3326
   -10.2443 -10.2402 -10.1433 -10.1398 -10.1382 -10.1354  -8.5678  -8.5611
    -8.5589  -8.5494  -8.5459  -8.5404  -7.8731  -7.8711  -7.8687  -7.8675
    -7.8304  -7.8279  -7.7662  -7.7576  -7.5032  -7.4916  -6.6202  -6.6158
    -6.3363  -6.3192  -6.3027  -6.2926  -6.2015  -6.1931  -5.7052  -5.6921
    -5.5577  -5.5471  -4.7171  -4.7121  -4.6933  -4.6863  -3.8769  -3.8681
    -0.1053   0.2767   1.0297   1.0530   1.4403   1.4758   1.4918   1.5630
     1.7624   1.7754   2.0495   2.0701   2.1900   2.2802   2.3712   2.3812
     2.4195   2.4594   2.4938   2.5143   2.5568   2.6613

          k =-0.1667 0.2887 0.0000 ( 59267 PWs)   bands (ev):

   -68.1081 -68.1070 -39.6155 -39.6144 -39.5991 -39.5980 -39.5944 -39.5934
   -21.2533 -20.6712 -20.6586 -20.1112 -20.1030 -19.5984 -19.5858 -19.1062
   -18.7059 -18.6943 -18.4645 -18.4572 -18.2000 -18.0941 -18.0847 -17.8563
   -12.4927 -12.2161 -12.2090 -11.8310 -11.8258 -11.6675 -11.2036 -11.1945
   -10.4003 -10.3762 -10.1282 -10.1213  -9.5991  -9.5954  -8.8352  -8.8304
    -8.8230  -8.7787  -8.7672  -8.6055  -8.2063  -8.0358  -8.0130  -7.8379
    -7.8359  -7.4474  -7.4442  -7.2773  -7.2453  -7.2188  -7.2136  -6.9705
    -6.9637  -6.5563  -6.5344  -6.1630  -6.1611  -5.8635  -5.4269  -5.2818
    -5.2665  -5.2088  -4.9088  -4.8928  -4.4964  -4.3518  -4.3389  -3.9737
    -0.2782   0.6674   1.0447   1.1993   1.3593   1.4041   1.4495   1.5323
     1.5619   1.8102   1.9046   2.1075   2.1887   2.2538   2.3052   2.3663
     2.4358   2.4703   2.5046   2.5996   2.6173   2.6471

          k = 0.3333 0.0000 0.0000 ( 59267 PWs)   bands (ev):

   -68.1081 -68.1070 -39.6155 -39.6144 -39.5991 -39.5980 -39.5944 -39.5934
   -21.2531 -20.6865 -20.6432 -20.1106 -20.1028 -19.6137 -19.5716 -19.1073
   -18.7154 -18.6823 -18.4650 -18.4576 -18.1975 -18.1081 -18.0743 -17.8559
   -12.4924 -12.2164 -12.2087 -11.8367 -11.8217 -11.6663 -11.2149 -11.1834
   -10.3997 -10.3761 -10.1362 -10.1137  -9.6029  -9.5908  -8.8395  -8.8312
    -8.8162  -8.7925  -8.7545  -8.6059  -8.2073  -8.0729  -7.9758  -7.8371
    -7.8355  -7.4512  -7.4399  -7.2762  -7.2442  -7.2247  -7.2077  -6.9710
    -6.9639  -6.5907  -6.5034  -6.1647  -6.1588  -5.8661  -5.4267  -5.2929
    -5.2513  -5.2091  -4.9083  -4.8944  -4.4923  -4.3672  -4.3285  -3.9734
    -0.2161   0.4510   1.0508   1.1867   1.3515   1.4861   1.4895   1.5243
     1.5868   1.8213   2.0815   2.1529   2.2243   2.2397   2.2668   2.3993
     2.4323   2.4631   2.5329   2.5556   2.5950   2.6022

          k =-0.1667-0.4811 0.0000 ( 59291 PWs)   bands (ev):

   -68.1081 -68.1070 -39.6155 -39.6144 -39.5991 -39.5980 -39.5944 -39.5934
   -21.1221 -20.9205 -20.7290 -20.1670 -19.8113 -19.4734 -19.3241 -19.1808
   -19.0214 -18.7858 -18.6444 -18.5531 -18.1516 -18.1007 -17.9284 -17.7304
   -12.3567 -12.1218 -12.0533 -11.9160 -11.6908 -11.6658 -11.5618 -10.9505
   -10.8981 -10.6316 -10.5325  -9.8679  -9.7022  -9.3446  -9.1197  -8.6498
    -8.6311  -8.5613  -8.3985  -8.3654  -8.1703  -8.1130  -8.0730  -8.0582
    -7.6963  -7.6322  -7.5031  -7.4833  -7.3453  -7.1794  -7.0768  -6.8526
    -6.6300  -6.3820  -6.1697  -6.1661  -5.9647  -5.9370  -5.7921  -5.7381
    -5.4605  -5.3913  -5.1902  -5.0430  -4.4275  -4.3543  -4.0831  -3.7617
    -0.2406   0.6353   1.0149   1.0930   1.1685   1.2966   1.3384   1.7578
     1.8598   1.8858   2.0448   2.1041   2.2272   2.2757   2.2921   2.3482
     2.4340   2.4678   2.5108   2.5149   2.5438   2.6365

          k = 0.5000-0.0962 0.0000 ( 59291 PWs)   bands (ev):

   -68.1081 -68.1070 -39.6155 -39.6144 -39.5991 -39.5980 -39.5944 -39.5934
   -21.1205 -20.9249 -20.7262 -20.1660 -19.8114 -19.4744 -19.3274 -19.1780
   -19.0220 -18.7861 -18.6387 -18.5566 -18.1446 -18.1101 -17.9268 -17.7303
   -12.3558 -12.1221 -12.0521 -11.9185 -11.6988 -11.6564 -11.5632 -10.9509
   -10.8965 -10.6304 -10.5341  -9.8666  -9.7026  -9.3451  -9.1193  -8.6445
    -8.6314  -8.5597  -8.4014  -8.3817  -8.1690  -8.1020  -8.0815  -8.0505
    -7.6939  -7.6326  -7.5026  -7.4840  -7.3423  -7.1803  -7.0773  -6.8529
    -6.6303  -6.3847  -6.1791  -6.1662  -5.9565  -5.9369  -5.7917  -5.7396
    -5.4612  -5.3906  -5.1794  -5.0504  -4.4156  -4.3687  -4.0813  -3.7617
    -0.1076   0.2827   0.9999   1.1062   1.1642   1.3021   1.6191   1.7540
     1.7856   2.0278   2.0507   2.1491   2.2027   2.2742   2.3257   2.3648
     2.4291   2.4723   2.5163   2.5341   2.5768   2.6281

          k =-0.3333-0.3849 0.0000 ( 59291 PWs)   bands (ev):

   -68.1081 -68.1070 -39.6155 -39.6144 -39.5991 -39.5980 -39.5944 -39.5934
   -21.1211 -20.9233 -20.7272 -20.1659 -19.8124 -19.4734 -19.3246 -19.1800
   -19.0236 -18.7852 -18.6395 -18.5562 -18.1458 -18.1086 -17.9268 -17.7304
   -12.3564 -12.1207 -12.0537 -11.9177 -11.6913 -11.6647 -11.5626 -10.9508
   -10.8966 -10.6300 -10.5345  -9.8670  -9.7027  -9.3450  -9.1198  -8.6459
    -8.6307  -8.5612  -8.3995  -8.3759  -8.1700  -8.1060  -8.0733  -8.0593
    -7.6941  -7.6316  -7.5069  -7.4801  -7.3419  -7.1804  -7.0776  -6.8560
    -6.6290  -6.3818  -6.1715  -6.1672  -5.9621  -5.9363  -5.7918  -5.7440
    -5.4611  -5.3883  -5.1795  -5.0506  -4.4167  -4.3677  -4.0811  -3.7617
    -0.1651   0.3999   1.0120   1.0655   1.2056   1.2928   1.4961   1.7691
     1.9223   1.9652   2.0420   2.0699   2.1813   2.2961   2.3187   2.3970
     2.4191   2.4602   2.4858   2.5448   2.5766   2.6197

          k = 0.5000 0.0962 0.0000 ( 59291 PWs)   bands (ev):

   -68.1081 -68.1070 -39.6155 -39.6144 -39.5991 -39.5980 -39.5944 -39.5934
   -21.1205 -20.9249 -20.7262 -20.1660 -19.8114 -19.4744 -19.3274 -19.1780
   -19.0220 -18.7861 -18.6388 -18.5566 -18.1446 -18.1101 -17.9268 -17.7303
   -12.3558 -12.1221 -12.0521 -11.9185 -11.6988 -11.6564 -11.5632 -10.9509
   -10.8965 -10.6304 -10.5342  -9.8667  -9.7027  -9.3451  -9.1193  -8.6445
    -8.6314  -8.5598  -8.4014  -8.3817  -8.1690  -8.1020  -8.0815  -8.0505
    -7.6940  -7.6325  -7.5026  -7.4841  -7.3423  -7.1804  -7.0773  -6.8529
    -6.6302  -6.3847  -6.1791  -6.1661  -5.9566  -5.9368  -5.7918  -5.7396
    -5.4612  -5.3907  -5.1794  -5.0504  -4.4156  -4.3687  -4.0813  -3.7617
    -0.1076   0.2827   0.9999   1.1062   1.1642   1.3021   1.6191   1.7540
     1.7856   2.0278   2.0507   2.1491   2.2027   2.2743   2.3257   2.3648
     2.4290   2.4724   2.5161   2.5339   2.5767   2.6301

          k =-0.3333 0.3849 0.0000 ( 59291 PWs)   bands (ev):

   -68.1081 -68.1070 -39.6155 -39.6144 -39.5991 -39.5980 -39.5944 -39.5934
   -21.1211 -20.9233 -20.7272 -20.1659 -19.8124 -19.4734 -19.3246 -19.1800
   -19.0236 -18.7852 -18.6395 -18.5562 -18.1458 -18.1086 -17.9269 -17.7304
   -12.3563 -12.1207 -12.0537 -11.9177 -11.6913 -11.6647 -11.5626 -10.9508
   -10.8965 -10.6300 -10.5345  -9.8670  -9.7026  -9.3449  -9.1198  -8.6459
    -8.6307  -8.5611  -8.3995  -8.3759  -8.1700  -8.1060  -8.0733  -8.0593
    -7.6941  -7.6315  -7.5069  -7.4801  -7.3419  -7.1803  -7.0777  -6.8560
    -6.6290  -6.3818  -6.1715  -6.1672  -5.9621  -5.9364  -5.7918  -5.7440
    -5.4610  -5.3883  -5.1795  -5.0506  -4.4168  -4.3677  -4.0811  -3.7617
    -0.1651   0.3999   1.0120   1.0655   1.2056   1.2928   1.4961   1.7691
     1.9223   1.9651   2.0420   2.0699   2.1814   2.2961   2.3187   2.3970
     2.4191   2.4601   2.4860   2.5451   2.5752   2.6182

          k =-0.1667-0.0962 0.0000 ( 59226 PWs)   bands (ev):

   -68.1081 -68.1070 -39.6155 -39.6144 -39.5991 -39.5980 -39.5944 -39.5934
   -21.3199 -20.5410 -20.3518 -20.3477 -19.9941 -19.9872 -19.8139 -18.7347
   -18.7284 -18.3812 -18.3749 -18.3622 -18.2754 -18.2672 -18.0840 -18.0803
   -12.5173 -12.5098 -12.4168 -11.5896 -11.5859 -11.4360 -11.4281 -10.9344
   -10.9329  -9.9377  -9.9352  -9.6840  -9.3831  -9.3813  -9.2383  -9.2366
    -9.0508  -9.0496  -8.9118  -8.3317  -8.3296  -7.9098  -7.9079  -7.8662
    -7.8508  -7.7796  -7.5960  -7.5870  -7.1102  -7.0935  -6.9678  -6.8970
    -6.8944  -6.8503  -6.5398  -6.5373  -6.2665  -5.3290  -5.3165  -5.1517
    -5.0740  -4.7970  -4.7915  -4.7462  -4.6083  -4.6013  -4.3427  -4.3347
    -0.3129   0.7009   1.0420   1.1331   1.2485   1.4546   1.5082   1.5653
     1.8303   1.9039   1.9933   2.0275   2.0602   2.1355   2.2942   2.3711
     2.4268   2.4400   2.4869   2.5602   2.6248   2.6455

          k =-0.0000-0.1925 0.0000 ( 59226 PWs)   bands (ev):

   -68.1081 -68.1070 -39.6155 -39.6144 -39.5991 -39.5980 -39.5944 -39.5934
   -21.3200 -20.5381 -20.3592 -20.3453 -19.9942 -19.9829 -19.8159 -18.7364
   -18.7248 -18.3907 -18.3789 -18.3600 -18.2654 -18.2649 -18.0887 -18.0784
   -12.5177 -12.5097 -12.4165 -11.5927 -11.5836 -11.4348 -11.4275 -10.9366
   -10.9318  -9.9369  -9.9360  -9.6842  -9.3829  -9.3807  -9.2377  -9.2376
    -9.0514  -9.0492  -8.9122  -8.3313  -8.3295  -7.9092  -7.9082  -7.8594
    -7.8463  -7.7805  -7.6257  -7.5750  -7.1128  -7.0770  -6.9669  -6.8985
    -6.8939  -6.8574  -6.5410  -6.5357  -6.2668  -5.3376  -5.3034  -5.1519
    -5.0737  -4.8081  -4.7988  -4.7461  -4.5969  -4.5942  -4.3541  -4.3277
    -0.3350   0.8362   1.0286   1.1513   1.2452   1.4194   1.4774   1.5803
     1.7512   1.8553   1.9197   1.9894   2.0193   2.2006   2.3281   2.3410
     2.4031   2.4700   2.5040   2.6302   2.6366   2.6720

          k = 0.5000-0.8660 0.0000 ( 59292 PWs)   bands (ev):

   -68.1081 -68.1070 -39.6154 -39.6144 -39.5991 -39.5980 -39.5944 -39.5934
   -21.0615 -21.0476 -20.4761 -20.4718 -19.4323 -19.4234 -19.4225 -19.4168
   -19.0030 -18.9922 -18.3358 -18.3316 -18.3222 -18.3124 -17.8001 -17.7957
   -12.0839 -12.0775 -12.0703 -12.0629 -11.8874 -11.8821 -11.3416 -11.3326
   -10.2444 -10.2402 -10.1433 -10.1399 -10.1382 -10.1354  -8.5678  -8.5611
    -8.5588  -8.5494  -8.5458  -8.5404  -7.8731  -7.8711  -7.8687  -7.8675
    -7.8304  -7.8280  -7.7662  -7.7576  -7.5032  -7.4917  -6.6201  -6.6157
    -6.3363  -6.3192  -6.3027  -6.2926  -6.2015  -6.1930  -5.7052  -5.6921
    -5.5578  -5.5472  -4.7170  -4.7121  -4.6933  -4.6862  -3.8770  -3.8682
    -0.1054   0.2767   1.0297   1.0530   1.4403   1.4758   1.4918   1.5630
     1.7624   1.7755   2.0496   2.0700   2.1899   2.2803   2.3714   2.3810
     2.4199   2.4590   2.4937   2.5139   2.5569   2.6616

          k =-1.0000 0.0000 0.0000 ( 59292 PWs)   bands (ev):

   -68.1081 -68.1070 -39.6154 -39.6144 -39.5991 -39.5980 -39.5944 -39.5934
   -21.0757 -21.0318 -20.4820 -20.4686 -19.4299 -19.4277 -19.4244 -19.4098
   -19.0142 -18.9820 -18.3636 -18.3394 -18.3044 -18.2950 -17.8034 -17.7934
   -12.1047 -12.0873 -12.0518 -12.0485 -11.8902 -11.8796 -11.3547 -11.3205
   -10.2474 -10.2469 -10.1415 -10.1405 -10.1333 -10.1329  -8.6018  -8.5769
    -8.5650  -8.5389  -8.5307  -8.5017  -7.8813  -7.8755  -7.8688  -7.8676
    -7.8253  -7.8239  -7.7871  -7.7432  -7.5176  -7.4785  -6.6207  -6.6137
    -6.3463  -6.3114  -6.3043  -6.2784  -6.2127  -6.1838  -5.7214  -5.6802
    -5.5703  -5.5347  -4.7543  -4.7372  -4.6614  -4.6571  -3.8837  -3.8624
    -0.2686   0.7695   1.0428   1.1112   1.2467   1.2948   1.5053   1.5908
     1.6228   1.7012   1.8862   2.1433   2.1816   2.2772   2.3126   2.3736
     2.3975   2.4982   2.5483   2.5659   2.6365   2.6391

     the Fermi energy is    -0.8507 ev

!    total energy              =   -1133.81262086 Ry

     total all-electron energy =     -6753.488324 Ry
     estimated scf accuracy    <       0.00000005 Ry
     smearing contrib. (-TS)   =      -0.00000000 Ry
     internal energy E=F+TS    =   -1133.81262086 Ry

     The total energy is F=E-TS. E is the sum of the following terms:
     one-electron contribution =   -3916.50142129 Ry
     hartree contribution      =    1986.88220028 Ry
     xc contribution           =    -186.20340322 Ry
     ewald contribution        =    1341.37705379 Ry
     DFT-D3 Dispersion         =      -0.13898986 Ry
     one-center paw contrib.   =    -359.22806055 Ry

     total magnetization       =    12.00 Bohr mag/cell
     absolute magnetization    =    12.00 Bohr mag/cell

     convergence has been achieved in  12 iterations

     Writing output data file ./mytmp/Crdimer0.28-0.5.save/
 
     init_run     :     18.86s CPU     20.23s WALL (       1 calls)
     electrons    :    481.22s CPU    520.48s WALL (       1 calls)

     Called by init_run:
     wfcinit      :     13.82s CPU     14.67s WALL (       1 calls)
     potinit      :      1.53s CPU      1.58s WALL (       1 calls)
     hinit0       :      1.57s CPU      1.63s WALL (       1 calls)

     Called by electrons:
     c_bands      :    383.25s CPU    406.03s WALL (      12 calls)
     sum_band     :     69.15s CPU     78.92s WALL (      12 calls)
     v_of_rho     :      6.52s CPU      7.18s WALL (      13 calls)
     newd         :     15.72s CPU     21.78s WALL (      13 calls)
     PAW_pot      :      6.39s CPU      6.48s WALL (      13 calls)
     mix_rho      :      0.81s CPU      0.91s WALL (      12 calls)

     Called by c_bands:
     init_us_2    :      4.32s CPU      4.39s WALL (     750 calls)
     cegterg      :    372.64s CPU    395.35s WALL (     360 calls)

     Called by *egterg:
     cdiaghg      :     22.56s CPU     35.58s WALL (    2424 calls)
     h_psi        :    224.45s CPU    232.99s WALL (    2454 calls)
     s_psi        :     24.66s CPU     24.79s WALL (    2454 calls)
     g_psi        :      0.67s CPU      0.68s WALL (    2064 calls)

     Called by h_psi:
     h_psi:calbec :     26.58s CPU     27.15s WALL (    2454 calls)
     vloc_psi     :    170.60s CPU    178.42s WALL (    2454 calls)
     add_vuspsi   :     25.03s CPU     25.16s WALL (    2454 calls)

     General routines
     calbec       :     34.85s CPU     35.57s WALL (    2814 calls)
     fft          :      8.10s CPU     11.90s WALL (     319 calls)
     ffts         :      0.11s CPU      0.11s WALL (      50 calls)
     fftw         :    173.70s CPU    181.59s WALL (  227588 calls)
     interpolate  :      0.37s CPU      0.41s WALL (      26 calls)
 
     Parallel routines
     fft_scatt_xy :     28.35s CPU     29.43s WALL (  227957 calls)
     fft_scatt_yz :     71.67s CPU     79.14s WALL (  227957 calls)
 
     PWSCF        :   8m22.08s CPU   9m 5.34s WALL

 
   This run was terminated on:   0:20:52  30Mar2021            

=------------------------------------------------------------------------------=
   JOB DONE.
=------------------------------------------------------------------------------=
