
     Program PWSCF v.6.7MaX starts on 29Mar2021 at 20:46:48 

     This program is part of the open-source Quantum ESPRESSO suite
     for quantum simulation of materials; please cite
         "P. Giannozzi et al., J. Phys.:Condens. Matter 21 395502 (2009);
         "P. Giannozzi et al., J. Phys.:Condens. Matter 29 465901 (2017);
          URL http://www.quantum-espresso.org", 
     in publications or presentations arising from this work. More details at
     http://www.quantum-espresso.org/quote

     Parallel version (MPI), running on    48 processors

     MPI processes distributed on     1 nodes
     R & G space division:  proc/nbgrp/npool/nimage =      48
     Reading input from Crdimer0.2-0.5.scf.in

     Current dimensions of program PWSCF are:
     Max number of different atomic species (ntypx) = 10
     Max number of k-points (npk) =  40000
     Max angular momentum in pseudopotentials (lmaxx) =  3
     file N.pbe-n-kjpaw_psl.1.0.0.UPF: wavefunction(s)  2S renormalized
     file Cr.pbe-spn-kjpaw_psl.1.0.0.UPF: wavefunction(s)  3S 3P 3D renormalized
     file Cr.pbe-spn-kjpaw_psl.1.0.0.UPF: wavefunction(s)  3S 3P 3D renormalized

     --------------------------------------------
     Parameters for DFT-D3 Dispersion Correction:
     --------------------------------------------
       Reference C6 values for interpolation: 

         atom   Coordination number   C6
         B          0.000           214.36
         B          0.971           150.74
         B          1.944           106.23
         B          2.913            62.89
         B          4.586            56.06
         N          0.000            50.54
         N          0.994            44.25
         N          2.014            39.35
         N          2.990            31.16
         Cr1        0.000          1381.48
         Cr1        1.827           571.38
         Cr1       10.619           306.69
         Cr2        0.000          1381.48
         Cr2        1.827           571.38
         Cr2       10.619           306.69

       Values used:

         atom   Coordination number  R0_AB[au]  C6      C8
         B          3.337            3.039     62.89   2505.97
         B          3.339            3.039     62.89   2505.91
         B          3.335            3.039     62.89   2506.01
         B          3.335            3.039     62.89   2506.01
         B          3.339            3.039     62.89   2505.91
         B          3.337            3.039     62.89   2505.97
         N          3.135            2.478     31.22    688.69
         N          3.151            2.478     31.21    688.55
         N          3.134            2.478     31.22    688.70
         N          3.134            2.478     31.22    688.70
         N          3.138            2.478     31.22    688.66
         N          3.139            2.478     31.22    688.65
         N          3.143            2.478     31.21    688.62
         N          3.135            2.478     31.22    688.69
         N          3.134            2.478     31.22    688.70
         B          3.377            3.039     62.86   2504.84
         B          3.339            3.039     62.89   2505.91
         B          3.337            3.039     62.89   2505.97
         B          3.339            3.039     62.89   2505.91
         B          3.337            3.039     62.89   2505.97
         B          3.377            3.039     62.86   2504.84
         N          3.143            2.478     31.21    688.62
         B          3.337            3.039     62.89   2505.96
         B          3.347            3.039     62.88   2505.71
         B          3.335            3.039     62.89   2506.01
         N          3.139            2.478     31.22    688.65
         N          3.151            2.478     31.21    688.55
         N          3.135            2.478     31.22    688.69
         N          3.135            2.478     31.22    688.69
         N          3.134            2.478     31.22    688.70
         N          3.134            2.478     31.22    688.70
         B          3.335            3.039     62.89   2506.01
         Cr1        0.115            3.252   1381.48 127494.61
         Cr2        0.115            3.252   1381.48 127494.61

         Molecular C6 ( Ry / a.u.^6 ) =     79164.32


     Subspace diagonalization in iterative solution of the eigenvalue problem:
     one sub-group per band group will be used
     scalapack distributed-memory algorithm (size of sub-group:  6*  6 procs)

 
     Parallelization info
     --------------------
     sticks:   dense  smooth     PW     G-vecs:    dense   smooth      PW
     Min         235      98     26                36277     9874    1408
     Max         236      99     27                36282     9883    1425
     Sum       11311    4741   1285              1741401   474235   68095
 


     bravais-lattice index     =            4
     lattice parameter (alat)  =      18.9275  a.u.
     unit-cell volume          =   10553.3021 (a.u.)^3
     number of atoms/cell      =           34
     number of atomic types    =            4
     number of electrons       =       156.00
     number of Kohn-Sham states=           94
     kinetic-energy cutoff     =      48.0000  Ry
     charge density cutoff     =     457.0000  Ry
     scf convergence threshold =      1.0E-07
     mixing beta               =       0.5000
     number of iterations used =            8  plain     mixing
     Exchange-correlation= SLA  PW   PBX  PBC
                           (   1   4   3   4   0   0   0)

     celldm(1)=  18.927497  celldm(2)=   0.000000  celldm(3)=   1.797125
     celldm(4)=   0.000000  celldm(5)=   0.000000  celldm(6)=   0.000000

     crystal axes: (cart. coord. in units of alat)
               a(1) = (   1.000000   0.000000   0.000000 )  
               a(2) = (  -0.500000   0.866025   0.000000 )  
               a(3) = (   0.000000   0.000000   1.797125 )  

     reciprocal axes: (cart. coord. in units 2 pi/alat)
               b(1) = (  1.000000  0.577350  0.000000 )  
               b(2) = (  0.000000  1.154701  0.000000 )  
               b(3) = (  0.000000  0.000000  0.556444 )  


     PseudoPot. # 1 for B  read from file:
     /home/sf05/q-e-qe-6.7MaX-Release/pseudo/B.pbe-n-kjpaw_psl.1.0.0.UPF
     MD5 check sum: d9c678ba5d3b2fd7b74e61139c9288d8
     Pseudo is Projector augmented-wave + core cor, Zval =  3.0
     Generated using "atomic" code by A. Dal Corso  v.5.1.2
     Shape of augmentation charge: PSQ
     Using radial grid of 1059 points,  4 beta functions with: 
                l(1) =   0
                l(2) =   0
                l(3) =   1
                l(4) =   1
     Q(r) pseudized with 0 coefficients 


     PseudoPot. # 2 for N  read from file:
     /home/sf05/q-e-qe-6.7MaX-Release/pseudo/N.pbe-n-kjpaw_psl.1.0.0.UPF
     MD5 check sum: e0e4e94a9c4025c5b51bd7d8793849bd
     Pseudo is Projector augmented-wave + core cor, Zval =  5.0
     Generated using "atomic" code by A. Dal Corso  v.5.1.2
     Shape of augmentation charge: PSQ
     Using radial grid of 1085 points,  4 beta functions with: 
                l(1) =   0
                l(2) =   0
                l(3) =   1
                l(4) =   1
     Q(r) pseudized with 0 coefficients 


     PseudoPot. # 3 for Cr read from file:
     /home/sf05/q-e-qe-6.7MaX-Release/pseudo/Cr.pbe-spn-kjpaw_psl.1.0.0.UPF
     MD5 check sum: 198f1a2427a48552563eee314eba32ba
     Pseudo is Projector augmented-wave + core cor, Zval = 14.0
     Generated using &quot;atomic&quot; code by A. Dal Corso  v.6.3
     Shape of augmentation charge: PSQ
     Using radial grid of 1183 points,  6 beta functions with: 
                l(1) =   0
                l(2) =   0
                l(3) =   1
                l(4) =   1
                l(5) =   2
                l(6) =   2
     Q(r) pseudized with 0 coefficients 


     PseudoPot. # 4 for Cr read from file:
     /home/sf05/q-e-qe-6.7MaX-Release/pseudo/Cr.pbe-spn-kjpaw_psl.1.0.0.UPF
     MD5 check sum: 198f1a2427a48552563eee314eba32ba
     Pseudo is Projector augmented-wave + core cor, Zval = 14.0
     Generated using &quot;atomic&quot; code by A. Dal Corso  v.6.3
     Shape of augmentation charge: PSQ
     Using radial grid of 1183 points,  6 beta functions with: 
                l(1) =   0
                l(2) =   0
                l(3) =   1
                l(4) =   1
                l(5) =   2
                l(6) =   2
     Q(r) pseudized with 0 coefficients 


     atomic species   valence    mass     pseudopotential
        B              3.00    10.81100     B ( 1.00)
        N              5.00    14.00674     N ( 1.00)
        Cr1           14.00    51.99610     Cr( 1.00)
        Cr2           14.00    51.99610     Cr( 1.00)

     Starting magnetic structure 
     atomic species   magnetization
        B            0.000
        N            0.000
        Cr1          1.000
        Cr2          1.000

     No symmetry found



   Cartesian axes

     site n.     atom                  positions (alat units)
         1           B   tau(   1) = (  -0.1250000   0.2165064   0.8985623  )
         2           B   tau(   2) = (   0.3750000   0.6495191   0.8985623  )
         3           B   tau(   3) = (   0.2500000   0.0000000   0.8985623  )
         4           B   tau(   4) = (   0.7500000   0.0000000   0.8985623  )
         5           B   tau(   5) = (   0.1250000   0.2165064   0.8985623  )
         6           B   tau(   6) = (  -0.3750000   0.6495191   0.8985623  )
         7           N   tau(   7) = (   0.7500005   0.2886748   0.8985623  )
         8           N   tau(   8) = (   0.3750005   0.5051812   0.8985623  )
         9           N   tau(   9) = (   0.3750005   0.0721685   0.8985623  )
        10           N   tau(  10) = (   0.6250005   0.0721685   0.8985623  )
        11           N   tau(  11) = (   0.2500005   0.2886748   0.8985623  )
        12           N   tau(  12) = (   0.6250005   0.5051812   0.8985623  )
        13           N   tau(  13) = (   0.0000005   0.2886748   0.8985623  )
        14           N   tau(  14) = (   0.2500005   0.7216875   0.8985623  )
        15           N   tau(  15) = (  -0.2499995   0.7216875   0.8985623  )
        16           B   tau(  16) = (   0.0000000   0.4330127   0.8985623  )
        17           B   tau(  17) = (   0.1250000   0.6495191   0.8985623  )
        18           B   tau(  18) = (  -0.1250000   0.6495191   0.8985623  )
        19           B   tau(  19) = (   0.3750000   0.2165064   0.8985623  )
        20           B   tau(  20) = (   0.6250000   0.2165064   0.8985623  )
        21           B   tau(  21) = (   0.5000000   0.4330127   0.8985623  )
        22           N   tau(  22) = (   0.5000005   0.2886748   0.8985623  )
        23           B   tau(  23) = (  -0.2500000   0.4330127   0.8985623  )
        24           B   tau(  24) = (   0.2500000   0.4330127   0.8985623  )
        25           B   tau(  25) = (   0.5000000   0.0000000   0.8985623  )
        26           N   tau(  26) = (  -0.1249995   0.5051812   0.8985623  )
        27           N   tau(  27) = (   0.1250005   0.5051812   0.8985623  )
        28           N   tau(  28) = (   0.0000005   0.7216875   0.8985623  )
        29           N   tau(  29) = (   0.5000005   0.7216875   0.8985623  )
        30           N   tau(  30) = (   0.1250005   0.0721685   0.8985623  )
        31           N   tau(  31) = (   0.8750005   0.0721685   0.8985623  )
        32           B   tau(  32) = (   0.0000000   0.0000000   0.8985623  )
        33           Cr1 tau(  33) = (   0.4500000   0.4330127   1.2040735  )
        34           Cr2 tau(  34) = (   0.0500000   0.4330127   1.2040735  )

     number of k points=    15  Gaussian smearing, width (Ry)=  0.0000
                       cart. coord. in units 2pi/alat
        k(    1) = (   0.1666667   0.2886751   0.0000000), wk =   0.0740741
        k(    2) = (   0.1666667  -0.4811252   0.0000000), wk =   0.0740741
        k(    3) = (   0.1666667  -0.0962250   0.0000000), wk =   0.0740741
        k(    4) = (  -0.5000000  -0.8660254   0.0000000), wk =   0.0370370
        k(    5) = (  -0.1666667   0.2886751   0.0000000), wk =   0.0740741
        k(    6) = (   0.3333333   0.0000000   0.0000000), wk =   0.0740741
        k(    7) = (  -0.1666667  -0.4811252   0.0000000), wk =   0.0740741
        k(    8) = (   0.5000000  -0.0962250   0.0000000), wk =   0.0740741
        k(    9) = (  -0.3333333  -0.3849002   0.0000000), wk =   0.0740741
        k(   10) = (   0.5000000   0.0962250   0.0000000), wk =   0.0740741
        k(   11) = (  -0.3333333   0.3849002   0.0000000), wk =   0.0740741
        k(   12) = (  -0.1666667  -0.0962250   0.0000000), wk =   0.0740741
        k(   13) = (  -0.0000000  -0.1924501   0.0000000), wk =   0.0740741
        k(   14) = (   0.5000000  -0.8660254   0.0000000), wk =   0.0370370
        k(   15) = (  -1.0000000   0.0000000   0.0000000), wk =   0.0370370

     Dense  grid:  1741401 G-vectors     FFT dimensions: ( 135, 135, 240)

     Smooth grid:   474235 G-vectors     FFT dimensions: (  90,  90, 160)

     Estimated max dynamical RAM per process >     218.62 MB

     Estimated total dynamical RAM >      10.25 GB
     Generating pointlists ...
     new r_m :   0.0595 (alat units)  1.1269 (a.u.) for type    1
     new r_m :   0.0595 (alat units)  1.1269 (a.u.) for type    2
     new r_m :   0.1277 (alat units)  2.4170 (a.u.) for type    3
     new r_m :   0.1277 (alat units)  2.4170 (a.u.) for type    4

     Initial potential from superposition of free atoms

     starting charge  155.99382, renormalised to  156.00000

     negative rho (up, down):  6.561E-03 4.655E-04
     Starting wfcs are  148 randomized atomic wfcs
     Checking if some PAW data can be deallocated... 

     total cpu time spent up to now is       20.0 secs

     Self-consistent Calculation

     iteration #  1     ecut=    48.00 Ry     beta= 0.50
     Davidson diagonalization with overlap
     ethr =  1.00E-02,  avg # of iterations =  2.9

     negative rho (up, down):  4.736E-03 2.943E-03

     total cpu time spent up to now is       63.5 secs

     total energy              =   -1130.76473248 Ry
     estimated scf accuracy    <      11.37637901 Ry

     total magnetization       =    12.00 Bohr mag/cell
     absolute magnetization    =    12.14 Bohr mag/cell

     iteration #  2     ecut=    48.00 Ry     beta= 0.50
     Davidson diagonalization with overlap
     ethr =  7.29E-03,  avg # of iterations =  2.8

     negative rho (up, down):  6.983E-03 8.890E-03

     total cpu time spent up to now is      120.8 secs

     total energy              =   -1133.12889015 Ry
     estimated scf accuracy    <       3.09671835 Ry

     total magnetization       =    11.78 Bohr mag/cell
     absolute magnetization    =    11.79 Bohr mag/cell

     iteration #  3     ecut=    48.00 Ry     beta= 0.50
     Davidson diagonalization with overlap
     ethr =  1.99E-03,  avg # of iterations =  6.8

     negative rho (up, down):  3.538E-03 5.300E-03

     total cpu time spent up to now is      157.6 secs

     total energy              =   -1133.64134211 Ry
     estimated scf accuracy    <       0.60919358 Ry

     total magnetization       =    12.00 Bohr mag/cell
     absolute magnetization    =    12.05 Bohr mag/cell

     iteration #  4     ecut=    48.00 Ry     beta= 0.50
     Davidson diagonalization with overlap
     ethr =  3.91E-04,  avg # of iterations =  7.4

     negative rho (up, down):  6.972E-03 1.376E-02

     total cpu time spent up to now is      194.9 secs

     total energy              =   -1133.79434746 Ry
     estimated scf accuracy    <       0.28131054 Ry

     total magnetization       =    12.00 Bohr mag/cell
     absolute magnetization    =    12.00 Bohr mag/cell

     iteration #  5     ecut=    48.00 Ry     beta= 0.50
     Davidson diagonalization with overlap
     ethr =  1.80E-04,  avg # of iterations =  8.4

     negative rho (up, down):  4.486E-03 9.609E-03

     total cpu time spent up to now is      233.1 secs

     total energy              =   -1133.81049828 Ry
     estimated scf accuracy    <       0.01739023 Ry

     total magnetization       =    12.00 Bohr mag/cell
     absolute magnetization    =    12.00 Bohr mag/cell

     iteration #  6     ecut=    48.00 Ry     beta= 0.50
     Davidson diagonalization with overlap
     c_bands:  1 eigenvalues not converged
     c_bands:  2 eigenvalues not converged
     c_bands:  1 eigenvalues not converged
     ethr =  1.11E-05,  avg # of iterations = 14.0

     negative rho (up, down):  3.356E-03 7.625E-03

     total cpu time spent up to now is      290.7 secs

     total energy              =   -1133.81398883 Ry
     estimated scf accuracy    <       0.00491078 Ry

     total magnetization       =    12.00 Bohr mag/cell
     absolute magnetization    =    12.01 Bohr mag/cell

     iteration #  7     ecut=    48.00 Ry     beta= 0.50
     Davidson diagonalization with overlap
     ethr =  3.15E-06,  avg # of iterations =  8.1

     negative rho (up, down):  3.026E-03 7.439E-03

     total cpu time spent up to now is      332.1 secs

     total energy              =   -1133.81518250 Ry
     estimated scf accuracy    <       0.00048662 Ry

     total magnetization       =    12.00 Bohr mag/cell
     absolute magnetization    =    12.01 Bohr mag/cell

     iteration #  8     ecut=    48.00 Ry     beta= 0.50
     Davidson diagonalization with overlap
     ethr =  3.12E-07,  avg # of iterations =  5.2

     negative rho (up, down):  2.899E-03 7.297E-03

     total cpu time spent up to now is      367.7 secs

     total energy              =   -1133.81538108 Ry
     estimated scf accuracy    <       0.00006354 Ry

     total magnetization       =    12.00 Bohr mag/cell
     absolute magnetization    =    12.00 Bohr mag/cell

     iteration #  9     ecut=    48.00 Ry     beta= 0.50
     Davidson diagonalization with overlap
     ethr =  4.07E-08,  avg # of iterations =  3.4

     negative rho (up, down):  2.863E-03 7.274E-03

     total cpu time spent up to now is      405.5 secs

     total energy              =   -1133.81546142 Ry
     estimated scf accuracy    <       0.00000765 Ry

     total magnetization       =    12.00 Bohr mag/cell
     absolute magnetization    =    12.00 Bohr mag/cell

     iteration # 10     ecut=    48.00 Ry     beta= 0.50
     Davidson diagonalization with overlap
     ethr =  4.90E-09,  avg # of iterations =  4.1

     negative rho (up, down):  2.852E-03 7.273E-03

     total cpu time spent up to now is      438.8 secs

     total energy              =   -1133.81548704 Ry
     estimated scf accuracy    <       0.00000202 Ry

     total magnetization       =    12.00 Bohr mag/cell
     absolute magnetization    =    12.00 Bohr mag/cell

     iteration # 11     ecut=    48.00 Ry     beta= 0.50
     Davidson diagonalization with overlap
     ethr =  1.29E-09,  avg # of iterations =  2.5

     negative rho (up, down):  2.849E-03 7.277E-03

     total cpu time spent up to now is      475.4 secs

     total energy              =   -1133.81550282 Ry
     estimated scf accuracy    <       0.00000028 Ry

     total magnetization       =    12.00 Bohr mag/cell
     absolute magnetization    =    12.00 Bohr mag/cell

     iteration # 12     ecut=    48.00 Ry     beta= 0.50
     Davidson diagonalization with overlap
     ethr =  1.76E-10,  avg # of iterations =  4.4

     negative rho (up, down):  2.847E-03 7.281E-03
 
     Magnetic moment per site:
     atom:    1    charge:    0.8803    magn:    0.0006    constr:    0.0000
     atom:    2    charge:    0.8804    magn:    0.0008    constr:    0.0000
     atom:    3    charge:    0.8803    magn:    0.0000    constr:    0.0000
     atom:    4    charge:    0.8803    magn:    0.0001    constr:    0.0000
     atom:    5    charge:    0.8804    magn:    0.0004    constr:    0.0000
     atom:    6    charge:    0.8803    magn:    0.0003    constr:    0.0000
     atom:    7    charge:    2.8608    magn:    0.0012    constr:    0.0000
     atom:    8    charge:    2.8607    magn:    0.0107    constr:    0.0000
     atom:    9    charge:    2.8609    magn:    0.0004    constr:    0.0000
     atom:   10    charge:    2.8609    magn:    0.0003    constr:    0.0000
     atom:   11    charge:    2.8607    magn:    0.0049    constr:    0.0000
     atom:   12    charge:    2.8607    magn:    0.0055    constr:    0.0000
     atom:   13    charge:    2.8596    magn:    0.0072    constr:    0.0000
     atom:   14    charge:    2.8599    magn:    0.0008    constr:    0.0000
     atom:   15    charge:    2.8599    magn:    0.0002    constr:    0.0000
     atom:   16    charge:    0.8808    magn:    0.0003    constr:    0.0000
     atom:   17    charge:    0.8801    magn:    0.0008    constr:    0.0000
     atom:   18    charge:    0.8800    magn:    0.0003    constr:    0.0000
     atom:   19    charge:    0.8798    magn:    0.0004    constr:    0.0000
     atom:   20    charge:    0.8797    magn:    0.0006    constr:    0.0000
     atom:   21    charge:    0.8806    magn:    0.0003    constr:    0.0000
     atom:   22    charge:    2.8609    magn:    0.0072    constr:    0.0000
     atom:   23    charge:    0.8798    magn:    0.0006    constr:    0.0000
     atom:   24    charge:    0.8800    magn:    0.0008    constr:    0.0000
     atom:   25    charge:    0.8799    magn:    0.0002    constr:    0.0000
     atom:   26    charge:    2.8595    magn:    0.0055    constr:    0.0000
     atom:   27    charge:    2.8595    magn:    0.0107    constr:    0.0000
     atom:   28    charge:    2.8597    magn:    0.0010    constr:    0.0000
     atom:   29    charge:    2.8596    magn:    0.0010    constr:    0.0000
     atom:   30    charge:    2.8596    magn:    0.0004    constr:    0.0000
     atom:   31    charge:    2.8596    magn:    0.0003    constr:    0.0000
     atom:   32    charge:    0.8802    magn:    0.0002    constr:    0.0000
     atom:   33    charge:   12.7868    magn:    4.7794    constr:    0.0000
     atom:   34    charge:   12.7868    magn:    4.7795    constr:    0.0000

     total cpu time spent up to now is      511.6 secs

     End of self-consistent calculation

 ------ SPIN UP ------------


          k = 0.1667 0.2887 0.0000 ( 59267 PWs)   bands (ev):

   -72.5115 -72.5111 -43.9766 -43.9755 -43.9684 -43.9680 -43.9661 -43.9655
   -21.2638 -20.6864 -20.6632 -20.1216 -20.1124 -19.6135 -19.5901 -19.1165
   -18.7223 -18.7002 -18.4746 -18.4666 -18.2124 -18.1058 -18.0898 -17.8660
   -12.5004 -12.2244 -12.2166 -11.8400 -11.8308 -11.6741 -11.2147 -11.1986
   -10.4082 -10.3840 -10.1389 -10.1261  -9.6081  -9.6014  -8.8554  -8.8433
    -8.8385  -8.7903  -8.7697  -8.6128  -8.2132  -8.0753  -8.0290  -7.8452
    -7.8429  -7.4573  -7.4512  -7.3105  -7.2652  -7.2279  -7.2185  -6.9775
    -6.9704  -6.5926  -6.5471  -6.1711  -6.1676  -5.8901  -5.4348  -5.3191
    -5.2854  -5.2163  -4.9348  -4.9127  -4.5261  -4.3771  -4.3528  -3.9960
    -2.5212  -1.5606  -1.5092  -1.4931  -1.4795  -1.4133  -1.3885  -1.3868
    -1.3651  -1.3405  -1.3234  -1.1910   0.5845   0.7487   0.9730   1.1857
     1.2417   1.4409   1.4859   1.5531   1.5840   1.6860

          k = 0.1667-0.4811 0.0000 ( 59291 PWs)   bands (ev):

   -72.5115 -72.5111 -43.9766 -43.9755 -43.9684 -43.9680 -43.9661 -43.9655
   -21.1335 -20.9297 -20.7384 -20.1770 -19.8212 -19.4835 -19.3347 -19.1903
   -19.0319 -18.7950 -18.6570 -18.5612 -18.1657 -18.1069 -17.9378 -17.7404
   -12.3644 -12.1299 -12.0603 -11.9232 -11.7002 -11.6706 -11.5690 -10.9582
   -10.9061 -10.6398 -10.5394  -9.8763  -9.7096  -9.3524  -9.1272  -8.6870
    -8.6392  -8.5693  -8.4058  -8.3860  -8.1774  -8.1405  -8.0825  -8.0628
    -7.7040  -7.6393  -7.5116  -7.4887  -7.3736  -7.1872  -7.0841  -6.8786
    -6.6383  -6.4077  -6.1962  -6.1739  -5.9892  -5.9452  -5.7996  -5.7635
    -5.4676  -5.4155  -5.2245  -5.0595  -4.4620  -4.3664  -4.1053  -3.7838
    -2.5148  -1.5660  -1.5079  -1.4929  -1.4769  -1.4109  -1.3915  -1.3874
    -1.3665  -1.3403  -1.3231  -1.1918   0.5731   0.6220   1.0235   1.0542
     1.1744   1.2657   1.3927   1.7733   1.8622   1.9143

          k = 0.1667-0.0962 0.0000 ( 59226 PWs)   bands (ev):

   -72.5115 -72.5111 -43.9767 -43.9755 -43.9684 -43.9680 -43.9661 -43.9655
   -21.3302 -20.5524 -20.3622 -20.3557 -20.0073 -19.9947 -19.8221 -18.7487
   -18.7369 -18.3941 -18.3871 -18.3709 -18.2853 -18.2748 -18.0937 -18.0877
   -12.5254 -12.5170 -12.4244 -11.5980 -11.5916 -11.4438 -11.4351 -10.9425
   -10.9398  -9.9462  -9.9420  -9.6920  -9.3909  -9.3891  -9.2468  -9.2438
    -9.0584  -9.0566  -8.9420  -8.3406  -8.3371  -7.9175  -7.9152  -7.9002
    -7.8614  -7.7865  -7.6228  -7.6062  -7.1490  -7.1120  -6.9753  -6.9050
    -6.9003  -6.8678  -6.5479  -6.5436  -6.2736  -5.3659  -5.3372  -5.1594
    -5.0814  -4.8265  -4.8201  -4.7671  -4.6307  -4.6225  -4.3669  -4.3513
    -2.5277  -1.5552  -1.5105  -1.4933  -1.4818  -1.4170  -1.3880  -1.3845
    -1.3633  -1.3408  -1.3236  -1.1901   0.5986   0.8815   0.9329   1.1889
     1.2517   1.3208   1.5077   1.5569   1.5920   1.6826

          k =-0.5000-0.8660 0.0000 ( 59292 PWs)   bands (ev):

   -72.5115 -72.5111 -43.9767 -43.9755 -43.9684 -43.9680 -43.9661 -43.9655
   -21.0779 -21.0519 -20.4872 -20.4797 -19.4472 -19.4347 -19.4302 -19.4244
   -19.0172 -18.9969 -18.3525 -18.3497 -18.3270 -18.3136 -17.8114 -17.8038
   -12.0974 -12.0906 -12.0730 -12.0643 -11.8963 -11.8869 -11.3523 -11.3367
   -10.2546 -10.2470 -10.1527 -10.1471 -10.1453 -10.1410  -8.6142  -8.5761
    -8.5702  -8.5550  -8.5527  -8.5473  -7.8840  -7.8797  -7.8754  -7.8735
    -7.8377  -7.8341  -7.7946  -7.7773  -7.5146  -7.4938  -6.6298  -6.6215
    -6.3834  -6.3443  -6.3274  -6.3072  -6.2123  -6.1974  -5.7352  -5.7074
    -5.5696  -5.5500  -4.7541  -4.7505  -4.7050  -4.6961  -3.9037  -3.8855
    -2.4596  -1.6589  -1.5025  -1.4867  -1.4725  -1.4135  -1.3879  -1.3828
    -1.3796  -1.3482  -1.3332  -1.2863   0.8765   0.9668   1.0830   1.2099
     1.2401   1.3381   1.4738   1.5828   1.6348   1.6523

          k =-0.1667 0.2887 0.0000 ( 59267 PWs)   bands (ev):

   -72.5115 -72.5111 -43.9766 -43.9755 -43.9684 -43.9680 -43.9661 -43.9655
   -21.2638 -20.6864 -20.6632 -20.1216 -20.1124 -19.6135 -19.5901 -19.1165
   -18.7222 -18.7002 -18.4746 -18.4666 -18.2124 -18.1058 -18.0898 -17.8660
   -12.5003 -12.2245 -12.2166 -11.8400 -11.8308 -11.6741 -11.2146 -11.1986
   -10.4082 -10.3840 -10.1389 -10.1262  -9.6081  -9.6014  -8.8554  -8.8432
    -8.8384  -8.7903  -8.7698  -8.6128  -8.2133  -8.0753  -8.0290  -7.8452
    -7.8429  -7.4573  -7.4513  -7.3105  -7.2652  -7.2279  -7.2185  -6.9776
    -6.9704  -6.5926  -6.5471  -6.1711  -6.1676  -5.8901  -5.4349  -5.3191
    -5.2854  -5.2162  -4.9348  -4.9127  -4.5261  -4.3771  -4.3528  -3.9960
    -2.5212  -1.5606  -1.5092  -1.4931  -1.4795  -1.4133  -1.3885  -1.3868
    -1.3651  -1.3405  -1.3234  -1.1910   0.5845   0.7487   0.9730   1.1858
     1.2417   1.4409   1.4860   1.5530   1.5840   1.6861

          k = 0.3333 0.0000 0.0000 ( 59267 PWs)   bands (ev):

   -72.5115 -72.5111 -43.9767 -43.9755 -43.9684 -43.9680 -43.9661 -43.9655
   -21.2635 -20.7009 -20.6486 -20.1218 -20.1111 -19.6281 -19.5769 -19.1180
   -18.7308 -18.6879 -18.4765 -18.4660 -18.2094 -18.1205 -18.0796 -17.8654
   -12.5000 -12.2253 -12.2157 -11.8445 -11.8279 -11.6727 -11.2246 -11.1889
   -10.4075 -10.3838 -10.1463 -10.1191  -9.6117  -9.5970  -8.8625  -8.8403
    -8.8318  -8.8026  -8.7588  -8.6132  -8.2145  -8.1196  -7.9839  -7.8446
    -7.8421  -7.4611  -7.4466  -7.3122  -7.2603  -7.2332  -7.2133  -6.9790
    -6.9700  -6.6338  -6.5118  -6.1726  -6.1655  -5.8947  -5.4345  -5.3293
    -5.2679  -5.2165  -4.9358  -4.9136  -4.5194  -4.3946  -4.3439  -3.9955
    -2.4867  -1.6166  -1.5050  -1.4890  -1.4765  -1.4166  -1.3865  -1.3837
    -1.3726  -1.3456  -1.3299  -1.2619   0.8987   0.9168   1.0336   1.2147
     1.2963   1.3655   1.4182   1.5118   1.5541   1.6068

          k =-0.1667-0.4811 0.0000 ( 59291 PWs)   bands (ev):

   -72.5115 -72.5111 -43.9766 -43.9755 -43.9684 -43.9680 -43.9661 -43.9655
   -21.1335 -20.9297 -20.7384 -20.1770 -19.8212 -19.4835 -19.3347 -19.1903
   -19.0319 -18.7950 -18.6570 -18.5612 -18.1657 -18.1069 -17.9378 -17.7404
   -12.3644 -12.1298 -12.0603 -11.9232 -11.7002 -11.6706 -11.5690 -10.9582
   -10.9061 -10.6398 -10.5394  -9.8763  -9.7096  -9.3525  -9.1272  -8.6870
    -8.6391  -8.5693  -8.4058  -8.3860  -8.1774  -8.1405  -8.0826  -8.0628
    -7.7040  -7.6393  -7.5115  -7.4887  -7.3736  -7.1872  -7.0841  -6.8786
    -6.6383  -6.4077  -6.1962  -6.1740  -5.9892  -5.9451  -5.7996  -5.7634
    -5.4677  -5.4155  -5.2245  -5.0595  -4.4620  -4.3665  -4.1053  -3.7838
    -2.5148  -1.5660  -1.5079  -1.4929  -1.4769  -1.4109  -1.3914  -1.3874
    -1.3665  -1.3403  -1.3231  -1.1918   0.5731   0.6221   1.0235   1.0543
     1.1744   1.2657   1.3927   1.7734   1.8626   1.9145

          k = 0.5000-0.0962 0.0000 ( 59291 PWs)   bands (ev):

   -72.5115 -72.5111 -43.9767 -43.9755 -43.9684 -43.9680 -43.9661 -43.9655
   -21.1315 -20.9352 -20.7348 -20.1757 -19.8213 -19.4850 -19.3388 -19.1867
   -19.0327 -18.7956 -18.6495 -18.5656 -18.1578 -18.1180 -17.9356 -17.7402
   -12.3636 -12.1301 -12.0590 -11.9260 -11.7077 -11.6615 -11.5706 -10.9587
   -10.9043 -10.6385 -10.5413  -9.8747  -9.7100  -9.3532  -9.1268  -8.6774
    -8.6397  -8.5673  -8.4175  -8.4063  -8.1757  -8.1212  -8.0910  -8.0555
    -7.7012  -7.6396  -7.5111  -7.4894  -7.3687  -7.1883  -7.0847  -6.8788
    -6.6387  -6.4137  -6.2123  -6.1736  -5.9749  -5.9447  -5.7991  -5.7664
    -5.4684  -5.4141  -5.2060  -5.0720  -4.4454  -4.3875  -4.1024  -3.7837
    -2.4597  -1.6588  -1.5024  -1.4867  -1.4724  -1.4146  -1.3878  -1.3826
    -1.3795  -1.3482  -1.3332  -1.2863   0.8444   0.9588   1.1043   1.1299
     1.2525   1.2862   1.4150   1.4917   1.6576   1.8046

          k =-0.3333-0.3849 0.0000 ( 59291 PWs)   bands (ev):

   -72.5115 -72.5111 -43.9767 -43.9755 -43.9684 -43.9680 -43.9661 -43.9655
   -21.1322 -20.9333 -20.7362 -20.1756 -19.8227 -19.4836 -19.3351 -19.1894
   -19.0347 -18.7944 -18.6506 -18.5650 -18.1592 -18.1162 -17.9357 -17.7403
   -12.3641 -12.1287 -12.0606 -11.9252 -11.7003 -11.6697 -11.5700 -10.9585
   -10.9042 -10.6380 -10.5418  -9.8752  -9.7101  -9.3529  -9.1274  -8.6804
    -8.6386  -8.5693  -8.4091  -8.4023  -8.1768  -8.1282  -8.0835  -8.0638
    -7.7014  -7.6386  -7.5154  -7.4854  -7.3679  -7.1884  -7.0851  -6.8846
    -6.6370  -6.4077  -6.1991  -6.1752  -5.9853  -5.9440  -5.7992  -5.7737
    -5.4683  -5.4099  -5.2058  -5.0727  -4.4468  -4.3864  -4.1018  -3.7838
    -2.4795  -1.6232  -1.5045  -1.4889  -1.4744  -1.4128  -1.3890  -1.3849
    -1.3744  -1.3455  -1.3295  -1.2623   0.7478   0.8789   1.0630   1.0860
     1.2046   1.2873   1.3729   1.5466   1.7589   1.8524

          k = 0.5000 0.0962 0.0000 ( 59291 PWs)   bands (ev):

   -72.5115 -72.5111 -43.9767 -43.9755 -43.9684 -43.9680 -43.9661 -43.9655
   -21.1315 -20.9352 -20.7348 -20.1757 -19.8213 -19.4850 -19.3388 -19.1867
   -19.0327 -18.7956 -18.6495 -18.5657 -18.1578 -18.1180 -17.9356 -17.7402
   -12.3636 -12.1302 -12.0590 -11.9261 -11.7077 -11.6615 -11.5706 -10.9586
   -10.9043 -10.6385 -10.5413  -9.8747  -9.7101  -9.3532  -9.1267  -8.6774
    -8.6397  -8.5674  -8.4175  -8.4063  -8.1757  -8.1212  -8.0910  -8.0555
    -7.7013  -7.6396  -7.5112  -7.4894  -7.3687  -7.1884  -7.0846  -6.8788
    -6.6386  -6.4137  -6.2123  -6.1735  -5.9749  -5.9446  -5.7992  -5.7664
    -5.4684  -5.4141  -5.2060  -5.0720  -4.4454  -4.3875  -4.1024  -3.7837
    -2.4597  -1.6588  -1.5024  -1.4867  -1.4724  -1.4146  -1.3878  -1.3826
    -1.3795  -1.3482  -1.3332  -1.2863   0.8444   0.9589   1.1044   1.1299
     1.2525   1.2862   1.4150   1.4916   1.6576   1.8046

          k =-0.3333 0.3849 0.0000 ( 59291 PWs)   bands (ev):

   -72.5115 -72.5111 -43.9767 -43.9755 -43.9684 -43.9680 -43.9661 -43.9655
   -21.1322 -20.9333 -20.7362 -20.1756 -19.8227 -19.4836 -19.3351 -19.1894
   -19.0347 -18.7944 -18.6506 -18.5650 -18.1592 -18.1162 -17.9357 -17.7403
   -12.3640 -12.1287 -12.0607 -11.9252 -11.7003 -11.6698 -11.5700 -10.9586
   -10.9042 -10.6380 -10.5418  -9.8752  -9.7100  -9.3528  -9.1274  -8.6804
    -8.6387  -8.5692  -8.4091  -8.4023  -8.1769  -8.1282  -8.0834  -8.0638
    -7.7013  -7.6386  -7.5154  -7.4854  -7.3679  -7.1884  -7.0851  -6.8846
    -6.6371  -6.4077  -6.1991  -6.1752  -5.9853  -5.9441  -5.7991  -5.7737
    -5.4682  -5.4099  -5.2059  -5.0727  -4.4469  -4.3864  -4.1018  -3.7838
    -2.4795  -1.6232  -1.5045  -1.4889  -1.4744  -1.4128  -1.3890  -1.3849
    -1.3744  -1.3455  -1.3295  -1.2623   0.7478   0.8789   1.0629   1.0860
     1.2047   1.2873   1.3729   1.5467   1.7590   1.8524

          k =-0.1667-0.0962 0.0000 ( 59226 PWs)   bands (ev):

   -72.5115 -72.5111 -43.9767 -43.9755 -43.9684 -43.9680 -43.9661 -43.9655
   -21.3302 -20.5524 -20.3622 -20.3557 -20.0073 -19.9947 -19.8221 -18.7487
   -18.7369 -18.3941 -18.3871 -18.3709 -18.2853 -18.2748 -18.0937 -18.0877
   -12.5254 -12.5170 -12.4244 -11.5980 -11.5916 -11.4438 -11.4351 -10.9425
   -10.9398  -9.9462  -9.9420  -9.6920  -9.3909  -9.3890  -9.2468  -9.2439
    -9.0583  -9.0566  -8.9420  -8.3406  -8.3371  -7.9175  -7.9152  -7.9002
    -7.8614  -7.7866  -7.6228  -7.6062  -7.1490  -7.1120  -6.9754  -6.9050
    -6.9003  -6.8678  -6.5479  -6.5436  -6.2736  -5.3659  -5.3372  -5.1593
    -5.0815  -4.8265  -4.8201  -4.7672  -4.6307  -4.6225  -4.3669  -4.3514
    -2.5277  -1.5552  -1.5105  -1.4933  -1.4818  -1.4170  -1.3880  -1.3845
    -1.3633  -1.3408  -1.3236  -1.1901   0.5986   0.8815   0.9329   1.1889
     1.2517   1.3208   1.5076   1.5569   1.5920   1.6826

          k =-0.0000-0.1925 0.0000 ( 59226 PWs)   bands (ev):

   -72.5115 -72.5111 -43.9766 -43.9755 -43.9684 -43.9680 -43.9661 -43.9655
   -21.3303 -20.5488 -20.3703 -20.3540 -20.0040 -19.9927 -19.8246 -18.7481
   -18.7350 -18.4075 -18.3898 -18.3692 -18.2724 -18.2722 -18.0982 -18.0869
   -12.5262 -12.5164 -12.4241 -11.6002 -11.5904 -11.4431 -11.4337 -10.9446
   -10.9390  -9.9445  -9.9437  -9.6923  -9.3913  -9.3877  -9.2459  -9.2451
    -9.0586  -9.0563  -8.9427  -8.3392  -8.3380  -7.9166  -7.9150  -7.8820
    -7.8605  -7.7877  -7.6679  -7.5921  -7.1403  -7.0971  -6.9744  -6.9053
    -6.9010  -6.8793  -6.5483  -6.5426  -6.2740  -5.3714  -5.3239  -5.1596
    -5.0812  -4.8464  -4.8300  -4.7695  -4.6123  -4.6086  -4.3806  -4.3455
    -2.5430  -1.5346  -1.5126  -1.4952  -1.4829  -1.4154  -1.3890  -1.3858
    -1.3602  -1.3384  -1.3205  -1.1406   0.4504   0.8020   0.9062   1.1613
     1.2404   1.3640   1.4956   1.5959   1.6443   1.7070

          k = 0.5000-0.8660 0.0000 ( 59292 PWs)   bands (ev):

   -72.5115 -72.5111 -43.9767 -43.9755 -43.9684 -43.9680 -43.9661 -43.9655
   -21.0779 -21.0519 -20.4872 -20.4797 -19.4472 -19.4347 -19.4302 -19.4244
   -19.0171 -18.9969 -18.3525 -18.3497 -18.3270 -18.3136 -17.8114 -17.8038
   -12.0974 -12.0905 -12.0730 -12.0644 -11.8963 -11.8868 -11.3523 -11.3367
   -10.2547 -10.2471 -10.1527 -10.1472 -10.1453 -10.1410  -8.6142  -8.5760
    -8.5702  -8.5550  -8.5526  -8.5474  -7.8840  -7.8796  -7.8754  -7.8735
    -7.8377  -7.8342  -7.7946  -7.7773  -7.5147  -7.4939  -6.6297  -6.6215
    -6.3834  -6.3443  -6.3274  -6.3072  -6.2122  -6.1973  -5.7352  -5.7074
    -5.5696  -5.5501  -4.7541  -4.7505  -4.7050  -4.6962  -3.9037  -3.8855
    -2.4596  -1.6589  -1.5025  -1.4867  -1.4725  -1.4135  -1.3879  -1.3829
    -1.3796  -1.3482  -1.3332  -1.2863   0.8766   0.9669   1.0830   1.2099
     1.2400   1.3381   1.4737   1.5828   1.6347   1.6520

          k =-1.0000 0.0000 0.0000 ( 59292 PWs)   bands (ev):

   -72.5115 -72.5111 -43.9767 -43.9755 -43.9684 -43.9680 -43.9661 -43.9655
   -21.0907 -21.0371 -20.4927 -20.4775 -19.4411 -19.4375 -19.4364 -19.4172
   -19.0280 -18.9873 -18.3841 -18.3521 -18.3089 -18.2982 -17.8138 -17.8027
   -12.1176 -12.0961 -12.0567 -12.0523 -11.8968 -11.8868 -11.3644 -11.3259
   -10.2567 -10.2561 -10.1487 -10.1475 -10.1406 -10.1394  -8.6512  -8.5888
    -8.5735  -8.5441  -8.5344  -8.5095  -7.8909  -7.8842  -7.8775  -7.8754
    -7.8412  -7.8295  -7.8143  -7.7609  -7.5274  -7.4826  -6.6284  -6.6211
    -6.3893  -6.3322  -6.3311  -6.2911  -6.2225  -6.1897  -5.7544  -5.6964
    -5.5810  -5.5389  -4.8025  -4.7758  -4.6674  -4.6623  -3.9093  -3.8815
    -2.5307  -1.5442  -1.5093  -1.4948  -1.4778  -1.4096  -1.3930  -1.3884
    -1.3631  -1.3377  -1.3201  -1.1428   0.4453   0.5517   1.0369   1.0639
     1.1235   1.5189   1.5803   1.5866   1.6232   1.9433

 ------ SPIN DOWN ----------


          k = 0.1667 0.2887 0.0000 ( 59267 PWs)   bands (ev):

   -68.1430 -68.1425 -39.6492 -39.6482 -39.6341 -39.6330 -39.6280 -39.6275
   -21.2562 -20.6780 -20.6570 -20.1133 -20.1060 -19.6051 -19.5841 -19.1089
   -18.7124 -18.6934 -18.4664 -18.4600 -18.2031 -18.0987 -18.0840 -17.8585
   -12.4953 -12.2184 -12.2122 -11.8351 -11.8266 -11.6699 -11.2091 -11.1940
   -10.4027 -10.3788 -10.1329 -10.1214  -9.6028  -9.5967  -8.8378  -8.8333
    -8.8259  -8.7849  -8.7659  -8.6081  -8.2088  -8.0454  -8.0083  -7.8402
    -7.8385  -7.4509  -7.4457  -7.2779  -7.2495  -7.2229  -7.2144  -6.9724
    -6.9663  -6.5657  -6.5296  -6.1661  -6.1629  -5.8663  -5.4292  -5.2890
    -5.2649  -5.2113  -4.9100  -4.8960  -4.4997  -4.3564  -4.3375  -3.9758
    -0.3789   0.7141   1.0324   1.1948   1.3542   1.3801   1.4417   1.5304
     1.5598   1.7899   1.9354   2.0920   2.1561   2.2228   2.2735   2.3358
     2.4219   2.4382   2.4822   2.5846   2.5947   2.6261

          k = 0.1667-0.4811 0.0000 ( 59291 PWs)   bands (ev):

   -68.1430 -68.1425 -39.6492 -39.6482 -39.6340 -39.6330 -39.6280 -39.6275
   -21.1251 -20.9234 -20.7310 -20.1695 -19.8139 -19.4761 -19.3272 -19.1828
   -19.0243 -18.7879 -18.6469 -18.5554 -18.1546 -18.1030 -17.9302 -17.7327
   -12.3593 -12.1247 -12.0557 -11.9186 -11.6956 -11.6661 -11.5643 -10.9530
   -10.9004 -10.6340 -10.5348  -9.8705  -9.7047  -9.3470  -9.1222  -8.6533
    -8.6341  -8.5635  -8.4012  -8.3686  -8.1725  -8.1141  -8.0774  -8.0588
    -7.6987  -7.6346  -7.5064  -7.4848  -7.3474  -7.1818  -7.0794  -6.8552
    -6.6324  -6.3845  -6.1732  -6.1689  -5.9660  -5.9393  -5.7946  -5.7413
    -5.4628  -5.3929  -5.1926  -5.0452  -4.4305  -4.3565  -4.0847  -3.7639
    -0.3480   0.6860   1.0102   1.0799   1.1650   1.2935   1.3263   1.7432
     1.8435   1.9174   2.0341   2.0928   2.1754   2.2414   2.2766   2.3302
     2.4026   2.4550   2.4879   2.5033   2.5387   2.6184

          k = 0.1667-0.0962 0.0000 ( 59226 PWs)   bands (ev):

   -68.1430 -68.1425 -39.6492 -39.6482 -39.6341 -39.6330 -39.6279 -39.6275
   -21.3227 -20.5440 -20.3552 -20.3493 -19.9985 -19.9879 -19.8160 -18.7394
   -18.7294 -18.3848 -18.3795 -18.3635 -18.2767 -18.2686 -18.0870 -18.0814
   -12.5194 -12.5128 -12.4194 -11.5931 -11.5874 -11.4380 -11.4310 -10.9373
   -10.9349  -9.9409  -9.9371  -9.6865  -9.3856  -9.3841  -9.2411  -9.2386
    -9.0534  -9.0519  -8.9149  -8.3347  -8.3315  -7.9124  -7.9106  -7.8688
    -7.8535  -7.7821  -7.5998  -7.5878  -7.1168  -7.0919  -6.9703  -6.9002
    -6.8961  -6.8520  -6.5429  -6.5390  -6.2689  -5.3355  -5.3156  -5.1542
    -5.0763  -4.8013  -4.7961  -4.7472  -4.6092  -4.6026  -4.3467  -4.3344
    -0.4081   0.7438   1.0385   1.1196   1.2401   1.4312   1.5125   1.5579
     1.8136   1.8840   1.9687   2.0107   2.0730   2.1353   2.2673   2.3291
     2.3902   2.4195   2.4758   2.5541   2.5989   2.6188

          k =-0.5000-0.8660 0.0000 ( 59292 PWs)   bands (ev):

   -68.1430 -68.1425 -39.6492 -39.6482 -39.6341 -39.6330 -39.6280 -39.6275
   -21.0689 -21.0457 -20.4799 -20.4730 -19.4373 -19.4274 -19.4227 -19.4182
   -19.0088 -18.9911 -18.3424 -18.3407 -18.3199 -18.3088 -17.8036 -17.7967
   -12.0906 -12.0855 -12.0681 -12.0609 -11.8915 -11.8830 -11.3469 -11.3320
   -10.2488 -10.2422 -10.1465 -10.1421 -10.1400 -10.1366  -8.5793  -8.5681
    -8.5646  -8.5488  -8.5440  -8.5348  -7.8780  -7.8746  -7.8709  -7.8691
    -7.8322  -7.8286  -7.7712  -7.7572  -7.5095  -7.4902  -6.6241  -6.6170
    -6.3427  -6.3173  -6.3078  -6.2931  -6.2066  -6.1926  -5.7116  -5.6900
    -5.5637  -5.5459  -4.7269  -4.7234  -4.6876  -4.6804  -3.8818  -3.8677
    -0.2687   0.3903   1.0149   1.0570   1.4247   1.4576   1.4866   1.5778
     1.7414   1.7598   2.0261   2.0521   2.1634   2.2935   2.3326   2.3583
     2.3817   2.4534   2.4807   2.4891   2.5297   2.6306

          k =-0.1667 0.2887 0.0000 ( 59267 PWs)   bands (ev):

   -68.1430 -68.1425 -39.6492 -39.6482 -39.6341 -39.6330 -39.6279 -39.6275
   -21.2562 -20.6780 -20.6570 -20.1133 -20.1060 -19.6051 -19.5841 -19.1089
   -18.7123 -18.6934 -18.4664 -18.4600 -18.2031 -18.0986 -18.0841 -17.8585
   -12.4953 -12.2184 -12.2122 -11.8351 -11.8267 -11.6699 -11.2091 -11.1940
   -10.4027 -10.3787 -10.1329 -10.1215  -9.6028  -9.5967  -8.8377  -8.8333
    -8.8259  -8.7849  -8.7659  -8.6080  -8.2088  -8.0454  -8.0083  -7.8402
    -7.8385  -7.4509  -7.4457  -7.2779  -7.2495  -7.2229  -7.2143  -6.9725
    -6.9664  -6.5657  -6.5296  -6.1660  -6.1629  -5.8662  -5.4293  -5.2890
    -5.2649  -5.2112  -4.9099  -4.8960  -4.4997  -4.3564  -4.3375  -3.9758
    -0.3789   0.7140   1.0324   1.1948   1.3542   1.3801   1.4417   1.5304
     1.5597   1.7899   1.9353   2.0920   2.1562   2.2228   2.2735   2.3357
     2.4218   2.4380   2.4823   2.5847   2.5946   2.6262

          k = 0.3333 0.0000 0.0000 ( 59267 PWs)   bands (ev):

   -68.1430 -68.1425 -39.6492 -39.6482 -39.6341 -39.6330 -39.6279 -39.6275
   -21.2560 -20.6894 -20.6455 -20.1136 -20.1049 -19.6164 -19.5738 -19.1099
   -18.7188 -18.6846 -18.4677 -18.4596 -18.2011 -18.1092 -18.0764 -17.8581
   -12.4951 -12.2193 -12.2114 -11.8391 -11.8239 -11.6688 -11.2177 -11.1857
   -10.4022 -10.3787 -10.1387 -10.1159  -9.6056  -9.5932  -8.8423  -8.8340
    -8.8193  -8.7950  -8.7566  -8.6084  -8.2097  -8.0755  -7.9779  -7.8398
    -7.8379  -7.4538  -7.4423  -7.2792  -7.2462  -7.2272  -7.2101  -6.9735
    -6.9660  -6.5931  -6.5054  -6.1673  -6.1613  -5.8686  -5.4291  -5.2968
    -5.2533  -5.2114  -4.9110  -4.8960  -4.4964  -4.3678  -4.3304  -3.9755
    -0.3365   0.5212   1.0522   1.1637   1.3423   1.4768   1.4938   1.5237
     1.5773   1.7903   2.0504   2.1350   2.2164   2.2219   2.2396   2.3800
     2.4006   2.4551   2.5001   2.5513   2.5667   2.5786

          k =-0.1667-0.4811 0.0000 ( 59291 PWs)   bands (ev):

   -68.1430 -68.1425 -39.6492 -39.6482 -39.6340 -39.6330 -39.6280 -39.6275
   -21.1251 -20.9234 -20.7310 -20.1695 -19.8139 -19.4761 -19.3272 -19.1828
   -19.0243 -18.7879 -18.6469 -18.5554 -18.1546 -18.1030 -17.9302 -17.7327
   -12.3593 -12.1247 -12.0557 -11.9186 -11.6956 -11.6660 -11.5643 -10.9530
   -10.9005 -10.6340 -10.5348  -9.8705  -9.7047  -9.3470  -9.1222  -8.6533
    -8.6341  -8.5635  -8.4012  -8.3686  -8.1724  -8.1141  -8.0775  -8.0588
    -7.6987  -7.6346  -7.5064  -7.4848  -7.3474  -7.1818  -7.0794  -6.8552
    -6.6324  -6.3845  -6.1732  -6.1689  -5.9660  -5.9393  -5.7945  -5.7413
    -5.4629  -5.3929  -5.1926  -5.0452  -4.4305  -4.3565  -4.0847  -3.7640
    -0.3480   0.6860   1.0102   1.0799   1.1650   1.2935   1.3262   1.7433
     1.8435   1.9174   2.0342   2.0929   2.1754   2.2413   2.2766   2.3302
     2.4026   2.4550   2.4879   2.5034   2.5386   2.6178

          k = 0.5000-0.0962 0.0000 ( 59291 PWs)   bands (ev):

   -68.1430 -68.1425 -39.6492 -39.6482 -39.6341 -39.6330 -39.6279 -39.6275
   -21.1238 -20.9271 -20.7286 -20.1685 -19.8140 -19.4771 -19.3299 -19.1804
   -19.0248 -18.7883 -18.6420 -18.5583 -18.1490 -18.1104 -17.9289 -17.7325
   -12.3587 -12.1249 -12.0547 -11.9208 -11.7017 -11.6586 -11.5655 -10.9533
   -10.8992 -10.6330 -10.5362  -9.8693  -9.7051  -9.3475  -9.1219  -8.6485
    -8.6343  -8.5622  -8.4037  -8.3834  -8.1713  -8.1042  -8.0843  -8.0528
    -7.6967  -7.6349  -7.5061  -7.4853  -7.3447  -7.1826  -7.0798  -6.8554
    -6.6326  -6.3876  -6.1812  -6.1688  -5.9587  -5.9391  -5.7942  -5.7426
    -5.4634  -5.3926  -5.1830  -5.0516  -4.4210  -4.3681  -4.0834  -3.7639
    -0.2696   0.3951   0.9957   1.0957   1.1606   1.2986   1.5957   1.7477
     1.7738   2.0065   2.0456   2.1235   2.1766   2.2365   2.3200   2.3578
     2.4111   2.4428   2.5014   2.5093   2.5523   2.6011

          k =-0.3333-0.3849 0.0000 ( 59291 PWs)   bands (ev):

   -68.1430 -68.1425 -39.6492 -39.6482 -39.6341 -39.6330 -39.6280 -39.6275
   -21.1242 -20.9258 -20.7295 -20.1684 -19.8150 -19.4761 -19.3275 -19.1822
   -19.0261 -18.7875 -18.6427 -18.5580 -18.1500 -18.1093 -17.9290 -17.7326
   -12.3590 -12.1238 -12.0560 -11.9202 -11.6957 -11.6653 -11.5650 -10.9532
   -10.8991 -10.6326 -10.5366  -9.8696  -9.7051  -9.3473  -9.1224  -8.6498
    -8.6337  -8.5635  -8.4020  -8.3781  -8.1722  -8.1079  -8.0781  -8.0595
    -7.6969  -7.6341  -7.5094  -7.4822  -7.3443  -7.1827  -7.0801  -6.8584
    -6.6316  -6.3846  -6.1744  -6.1696  -5.9640  -5.9386  -5.7943  -5.7464
    -5.4634  -5.3905  -5.1831  -5.0518  -4.4218  -4.3674  -4.0832  -3.7639
    -0.2994   0.4826   1.0018   1.0627   1.2017   1.2880   1.4790   1.7643
     1.8925   1.9477   2.0308   2.0726   2.1541   2.2874   2.2990   2.3568
     2.3934   2.4451   2.4703   2.5182   2.5643   2.5942

          k = 0.5000 0.0962 0.0000 ( 59291 PWs)   bands (ev):

   -68.1430 -68.1425 -39.6492 -39.6482 -39.6341 -39.6330 -39.6279 -39.6275
   -21.1238 -20.9272 -20.7286 -20.1685 -19.8140 -19.4771 -19.3299 -19.1804
   -19.0248 -18.7883 -18.6420 -18.5583 -18.1490 -18.1105 -17.9289 -17.7325
   -12.3587 -12.1249 -12.0547 -11.9208 -11.7017 -11.6586 -11.5655 -10.9533
   -10.8992 -10.6330 -10.5362  -9.8693  -9.7051  -9.3475  -9.1219  -8.6485
    -8.6343  -8.5622  -8.4037  -8.3834  -8.1713  -8.1042  -8.0842  -8.0528
    -7.6967  -7.6348  -7.5061  -7.4853  -7.3447  -7.1827  -7.0798  -6.8554
    -6.6326  -6.3876  -6.1812  -6.1687  -5.9587  -5.9391  -5.7942  -5.7426
    -5.4635  -5.3926  -5.1830  -5.0516  -4.4210  -4.3681  -4.0834  -3.7639
    -0.2696   0.3951   0.9958   1.0957   1.1606   1.2986   1.5957   1.7476
     1.7738   2.0065   2.0456   2.1235   2.1766   2.2366   2.3200   2.3580
     2.4109   2.4427   2.5016   2.5096   2.5527   2.6004

          k =-0.3333 0.3849 0.0000 ( 59291 PWs)   bands (ev):

   -68.1430 -68.1425 -39.6492 -39.6482 -39.6341 -39.6330 -39.6280 -39.6275
   -21.1242 -20.9258 -20.7295 -20.1684 -19.8150 -19.4761 -19.3275 -19.1822
   -19.0261 -18.7875 -18.6427 -18.5579 -18.1500 -18.1093 -17.9290 -17.7326
   -12.3590 -12.1238 -12.0560 -11.9202 -11.6957 -11.6654 -11.5649 -10.9532
   -10.8990 -10.6326 -10.5366  -9.8696  -9.7051  -9.3473  -9.1224  -8.6498
    -8.6337  -8.5634  -8.4021  -8.3781  -8.1722  -8.1079  -8.0780  -8.0595
    -7.6968  -7.6341  -7.5094  -7.4822  -7.3443  -7.1826  -7.0801  -6.8584
    -6.6316  -6.3846  -6.1744  -6.1697  -5.9640  -5.9387  -5.7942  -5.7464
    -5.4633  -5.3905  -5.1831  -5.0518  -4.4218  -4.3674  -4.0831  -3.7639
    -0.2994   0.4826   1.0018   1.0627   1.2017   1.2881   1.4791   1.7643
     1.8925   1.9477   2.0309   2.0726   2.1542   2.2872   2.2991   2.3567
     2.3933   2.4453   2.4703   2.5182   2.5649   2.5952

          k =-0.1667-0.0962 0.0000 ( 59226 PWs)   bands (ev):

   -68.1430 -68.1425 -39.6492 -39.6482 -39.6341 -39.6330 -39.6279 -39.6275
   -21.3227 -20.5440 -20.3552 -20.3493 -19.9985 -19.9879 -19.8159 -18.7394
   -18.7294 -18.3848 -18.3795 -18.3635 -18.2767 -18.2686 -18.0869 -18.0814
   -12.5194 -12.5129 -12.4194 -11.5931 -11.5874 -11.4380 -11.4310 -10.9373
   -10.9349  -9.9409  -9.9371  -9.6864  -9.3856  -9.3840  -9.2411  -9.2386
    -9.0534  -9.0519  -8.9149  -8.3347  -8.3315  -7.9124  -7.9106  -7.8688
    -7.8535  -7.7821  -7.5998  -7.5878  -7.1168  -7.0919  -6.9704  -6.9001
    -6.8961  -6.8520  -6.5429  -6.5390  -6.2689  -5.3355  -5.3156  -5.1541
    -5.0764  -4.8013  -4.7961  -4.7473  -4.6091  -4.6026  -4.3467  -4.3344
    -0.4081   0.7438   1.0385   1.1196   1.2401   1.4312   1.5125   1.5579
     1.8137   1.8839   1.9687   2.0106   2.0729   2.1353   2.2675   2.3290
     2.3901   2.4192   2.4753   2.5540   2.5990   2.6187

          k =-0.0000-0.1925 0.0000 ( 59226 PWs)   bands (ev):

   -68.1430 -68.1425 -39.6492 -39.6482 -39.6340 -39.6330 -39.6279 -39.6275
   -21.3228 -20.5415 -20.3611 -20.3478 -19.9961 -19.9867 -19.8176 -18.7388
   -18.7283 -18.3940 -18.3804 -18.3629 -18.2680 -18.2672 -18.0898 -18.0809
   -12.5203 -12.5122 -12.4193 -11.5947 -11.5866 -11.4376 -11.4298 -10.9388
   -10.9344  -9.9393  -9.9386  -9.6867  -9.3859  -9.3831  -9.2400  -9.2399
    -9.0537  -9.0517  -8.9152  -8.3337  -8.3321  -7.9118  -7.9104  -7.8626
    -7.8499  -7.7829  -7.6252  -7.5784  -7.1132  -7.0832  -6.9697  -6.9003
    -6.8967  -6.8579  -6.5431  -6.5385  -6.2692  -5.3389  -5.3085  -5.1543
    -5.0761  -4.8120  -4.7998  -4.7486  -4.6000  -4.5960  -4.3536  -4.3310
    -0.4248   0.8763   1.0102   1.1515   1.2327   1.3857   1.4829   1.5707
     1.7425   1.8432   1.9580   1.9834   2.0131   2.1506   2.2646   2.3374
     2.3809   2.4552   2.4575   2.5849   2.6145   2.6421

          k = 0.5000-0.8660 0.0000 ( 59292 PWs)   bands (ev):

   -68.1430 -68.1425 -39.6492 -39.6482 -39.6341 -39.6330 -39.6280 -39.6275
   -21.0689 -21.0457 -20.4799 -20.4730 -19.4373 -19.4274 -19.4227 -19.4182
   -19.0087 -18.9911 -18.3425 -18.3407 -18.3198 -18.3089 -17.8036 -17.7967
   -12.0906 -12.0854 -12.0681 -12.0610 -11.8915 -11.8830 -11.3469 -11.3320
   -10.2488 -10.2422 -10.1465 -10.1421 -10.1400 -10.1366  -8.5793  -8.5680
    -8.5646  -8.5487  -8.5441  -8.5348  -7.8780  -7.8746  -7.8708  -7.8691
    -7.8323  -7.8287  -7.7712  -7.7572  -7.5095  -7.4902  -6.6240  -6.6169
    -6.3427  -6.3173  -6.3078  -6.2931  -6.2065  -6.1926  -5.7116  -5.6900
    -5.5638  -5.5460  -4.7269  -4.7233  -4.6876  -4.6804  -3.8818  -3.8677
    -0.2687   0.3903   1.0149   1.0571   1.4247   1.4576   1.4866   1.5778
     1.7413   1.7599   2.0261   2.0519   2.1635   2.2939   2.3327   2.3584
     2.3819   2.4533   2.4806   2.4891   2.5299   2.6312

          k =-1.0000 0.0000 0.0000 ( 59292 PWs)   bands (ev):

   -68.1430 -68.1425 -39.6492 -39.6482 -39.6340 -39.6330 -39.6280 -39.6275
   -21.0791 -21.0340 -20.4839 -20.4714 -19.4325 -19.4290 -19.4279 -19.4132
   -19.0165 -18.9841 -18.3673 -18.3411 -18.3068 -18.2971 -17.8049 -17.7961
   -12.1079 -12.0902 -12.0542 -12.0506 -11.8918 -11.8832 -11.3571 -11.3228
   -10.2497 -10.2495 -10.1434 -10.1425 -10.1362 -10.1357  -8.6058  -8.5804
    -8.5675  -8.5416  -8.5328  -8.5038  -7.8835  -7.8777  -7.8711  -7.8706
    -7.8272  -7.8261  -7.7874  -7.7474  -7.5201  -7.4806  -6.6227  -6.6171
    -6.3467  -6.3119  -6.3105  -6.2828  -6.2149  -6.1860  -5.7234  -5.6817
    -5.5729  -5.5369  -4.7589  -4.7379  -4.6636  -4.6591  -3.8844  -3.8659
    -0.3681   0.8068   1.0505   1.0896   1.2341   1.2755   1.5048   1.5870
     1.6212   1.7364   1.8847   2.1181   2.1529   2.2346   2.2793   2.3318
     2.3757   2.4870   2.5410   2.5412   2.6125   2.6664

     the Fermi energy is    -0.8576 ev

!    total energy              =   -1133.81551065 Ry

     total all-electron energy =     -6753.491214 Ry
     estimated scf accuracy    <       0.00000003 Ry
     smearing contrib. (-TS)   =      -0.00000000 Ry
     internal energy E=F+TS    =   -1133.81551065 Ry

     The total energy is F=E-TS. E is the sum of the following terms:
     one-electron contribution =   -3921.02884382 Ry
     hartree contribution      =    1989.10151821 Ry
     xc contribution           =    -186.20066014 Ry
     ewald contribution        =    1343.68148087 Ry
     DFT-D3 Dispersion         =      -0.14029742 Ry
     one-center paw contrib.   =    -359.22870835 Ry

     total magnetization       =    12.00 Bohr mag/cell
     absolute magnetization    =    12.00 Bohr mag/cell

     convergence has been achieved in  12 iterations

     Writing output data file ./mytmp/Crdimer0.2-0.5.save/
 
     init_run     :     18.43s CPU     19.63s WALL (       1 calls)
     electrons    :    455.66s CPU    491.84s WALL (       1 calls)

     Called by init_run:
     wfcinit      :     13.71s CPU     14.23s WALL (       1 calls)
     potinit      :      1.46s CPU      1.82s WALL (       1 calls)
     hinit0       :      1.53s CPU      1.60s WALL (       1 calls)

     Called by electrons:
     c_bands      :    370.16s CPU    398.14s WALL (      12 calls)
     sum_band     :     66.10s CPU     71.45s WALL (      12 calls)
     v_of_rho     :      3.96s CPU      4.56s WALL (      13 calls)
     newd         :      8.56s CPU     11.10s WALL (      13 calls)
     PAW_pot      :      6.31s CPU      6.41s WALL (      13 calls)
     mix_rho      :      0.85s CPU      0.89s WALL (      12 calls)

     Called by c_bands:
     init_us_2    :      4.37s CPU      4.39s WALL (     750 calls)
     cegterg      :    359.38s CPU    387.30s WALL (     360 calls)

     Called by *egterg:
     cdiaghg      :     23.29s CPU     36.84s WALL (    2459 calls)
     h_psi        :    231.24s CPU    244.70s WALL (    2489 calls)
     s_psi        :     24.69s CPU     24.73s WALL (    2489 calls)
     g_psi        :      0.67s CPU      0.69s WALL (    2099 calls)

     Called by h_psi:
     h_psi:calbec :     26.32s CPU     26.99s WALL (    2489 calls)
     vloc_psi     :    177.46s CPU    190.11s WALL (    2489 calls)
     add_vuspsi   :     25.51s CPU     25.65s WALL (    2489 calls)

     General routines
     calbec       :     34.52s CPU     35.37s WALL (    2849 calls)
     fft          :      3.74s CPU      4.68s WALL (     319 calls)
     ffts         :      0.10s CPU      0.10s WALL (      50 calls)
     fftw         :    180.38s CPU    194.11s WALL (  226784 calls)
     interpolate  :      0.39s CPU      0.41s WALL (      26 calls)
 
     Parallel routines
     fft_scatt_xy :     27.69s CPU     28.71s WALL (  227153 calls)
     fft_scatt_yz :     74.59s CPU     85.26s WALL (  227153 calls)
 
     PWSCF        :   7m56.09s CPU   8m35.51s WALL

 
   This run was terminated on:  20:55:24  29Mar2021            

=------------------------------------------------------------------------------=
   JOB DONE.
=------------------------------------------------------------------------------=
