
     Program PWSCF v.6.7MaX starts on 29Mar2021 at 20:38: 9 

     This program is part of the open-source Quantum ESPRESSO suite
     for quantum simulation of materials; please cite
         "P. Giannozzi et al., J. Phys.:Condens. Matter 21 395502 (2009);
         "P. Giannozzi et al., J. Phys.:Condens. Matter 29 465901 (2017);
          URL http://www.quantum-espresso.org", 
     in publications or presentations arising from this work. More details at
     http://www.quantum-espresso.org/quote

     Parallel version (MPI), running on    48 processors

     MPI processes distributed on     1 nodes
     R & G space division:  proc/nbgrp/npool/nimage =      48
     Reading input from Crdimer0.2-0.4.scf.in

     Current dimensions of program PWSCF are:
     Max number of different atomic species (ntypx) = 10
     Max number of k-points (npk) =  40000
     Max angular momentum in pseudopotentials (lmaxx) =  3
     file N.pbe-n-kjpaw_psl.1.0.0.UPF: wavefunction(s)  2S renormalized
     file Cr.pbe-spn-kjpaw_psl.1.0.0.UPF: wavefunction(s)  3S 3P 3D renormalized
     file Cr.pbe-spn-kjpaw_psl.1.0.0.UPF: wavefunction(s)  3S 3P 3D renormalized

     --------------------------------------------
     Parameters for DFT-D3 Dispersion Correction:
     --------------------------------------------
       Reference C6 values for interpolation: 

         atom   Coordination number   C6
         B          0.000           214.36
         B          0.971           150.74
         B          1.944           106.23
         B          2.913            62.89
         B          4.586            56.06
         N          0.000            50.54
         N          0.994            44.25
         N          2.014            39.35
         N          2.990            31.16
         Cr1        0.000          1381.48
         Cr1        1.827           571.38
         Cr1       10.619           306.69
         Cr2        0.000          1381.48
         Cr2        1.827           571.38
         Cr2       10.619           306.69

       Values used:

         atom   Coordination number  R0_AB[au]  C6      C8
         B          3.340            3.039     62.89   2505.90
         B          3.336            3.039     62.89   2505.99
         B          3.336            3.039     62.89   2506.00
         B          3.335            3.039     62.89   2506.01
         B          3.349            3.039     62.88   2505.66
         B          3.336            3.039     62.89   2506.00
         N          3.135            2.478     31.22    688.68
         N          3.140            2.478     31.22    688.64
         N          3.135            2.478     31.22    688.69
         N          3.134            2.478     31.22    688.69
         N          3.141            2.478     31.22    688.63
         N          3.136            2.478     31.22    688.68
         N          3.157            2.478     31.21    688.50
         N          3.134            2.478     31.22    688.70
         N          3.134            2.478     31.22    688.70
         B          3.361            3.039     62.87   2505.31
         B          3.336            3.039     62.89   2505.99
         B          3.336            3.039     62.89   2506.00
         B          3.349            3.039     62.88   2505.66
         B          3.340            3.039     62.89   2505.90
         B          3.361            3.039     62.87   2505.31
         N          3.157            2.478     31.21    688.50
         B          3.337            3.039     62.89   2505.97
         B          3.344            3.039     62.89   2505.79
         B          3.336            3.039     62.89   2506.00
         N          3.136            2.478     31.22    688.68
         N          3.140            2.478     31.22    688.64
         N          3.134            2.478     31.22    688.70
         N          3.134            2.478     31.22    688.70
         N          3.135            2.478     31.22    688.69
         N          3.134            2.478     31.22    688.69
         B          3.336            3.039     62.89   2506.00
         Cr1        0.110            3.252   1381.48 127494.68
         Cr2        0.110            3.252   1381.48 127494.68

         Molecular C6 ( Ry / a.u.^6 ) =     79164.75


     Subspace diagonalization in iterative solution of the eigenvalue problem:
     one sub-group per band group will be used
     scalapack distributed-memory algorithm (size of sub-group:  6*  6 procs)

 
     Parallelization info
     --------------------
     sticks:   dense  smooth     PW     G-vecs:    dense   smooth      PW
     Min         235      98     26                36277     9874    1408
     Max         236      99     27                36282     9883    1425
     Sum       11311    4741   1285              1741401   474235   68095
 


     bravais-lattice index     =            4
     lattice parameter (alat)  =      18.9275  a.u.
     unit-cell volume          =   10553.3021 (a.u.)^3
     number of atoms/cell      =           34
     number of atomic types    =            4
     number of electrons       =       156.00
     number of Kohn-Sham states=           94
     kinetic-energy cutoff     =      48.0000  Ry
     charge density cutoff     =     457.0000  Ry
     scf convergence threshold =      1.0E-07
     mixing beta               =       0.5000
     number of iterations used =            8  plain     mixing
     Exchange-correlation= SLA  PW   PBX  PBC
                           (   1   4   3   4   0   0   0)

     celldm(1)=  18.927497  celldm(2)=   0.000000  celldm(3)=   1.797125
     celldm(4)=   0.000000  celldm(5)=   0.000000  celldm(6)=   0.000000

     crystal axes: (cart. coord. in units of alat)
               a(1) = (   1.000000   0.000000   0.000000 )  
               a(2) = (  -0.500000   0.866025   0.000000 )  
               a(3) = (   0.000000   0.000000   1.797125 )  

     reciprocal axes: (cart. coord. in units 2 pi/alat)
               b(1) = (  1.000000  0.577350  0.000000 )  
               b(2) = (  0.000000  1.154701  0.000000 )  
               b(3) = (  0.000000  0.000000  0.556444 )  


     PseudoPot. # 1 for B  read from file:
     /home/sf05/q-e-qe-6.7MaX-Release/pseudo/B.pbe-n-kjpaw_psl.1.0.0.UPF
     MD5 check sum: d9c678ba5d3b2fd7b74e61139c9288d8
     Pseudo is Projector augmented-wave + core cor, Zval =  3.0
     Generated using "atomic" code by A. Dal Corso  v.5.1.2
     Shape of augmentation charge: PSQ
     Using radial grid of 1059 points,  4 beta functions with: 
                l(1) =   0
                l(2) =   0
                l(3) =   1
                l(4) =   1
     Q(r) pseudized with 0 coefficients 


     PseudoPot. # 2 for N  read from file:
     /home/sf05/q-e-qe-6.7MaX-Release/pseudo/N.pbe-n-kjpaw_psl.1.0.0.UPF
     MD5 check sum: e0e4e94a9c4025c5b51bd7d8793849bd
     Pseudo is Projector augmented-wave + core cor, Zval =  5.0
     Generated using "atomic" code by A. Dal Corso  v.5.1.2
     Shape of augmentation charge: PSQ
     Using radial grid of 1085 points,  4 beta functions with: 
                l(1) =   0
                l(2) =   0
                l(3) =   1
                l(4) =   1
     Q(r) pseudized with 0 coefficients 


     PseudoPot. # 3 for Cr read from file:
     /home/sf05/q-e-qe-6.7MaX-Release/pseudo/Cr.pbe-spn-kjpaw_psl.1.0.0.UPF
     MD5 check sum: 198f1a2427a48552563eee314eba32ba
     Pseudo is Projector augmented-wave + core cor, Zval = 14.0
     Generated using &quot;atomic&quot; code by A. Dal Corso  v.6.3
     Shape of augmentation charge: PSQ
     Using radial grid of 1183 points,  6 beta functions with: 
                l(1) =   0
                l(2) =   0
                l(3) =   1
                l(4) =   1
                l(5) =   2
                l(6) =   2
     Q(r) pseudized with 0 coefficients 


     PseudoPot. # 4 for Cr read from file:
     /home/sf05/q-e-qe-6.7MaX-Release/pseudo/Cr.pbe-spn-kjpaw_psl.1.0.0.UPF
     MD5 check sum: 198f1a2427a48552563eee314eba32ba
     Pseudo is Projector augmented-wave + core cor, Zval = 14.0
     Generated using &quot;atomic&quot; code by A. Dal Corso  v.6.3
     Shape of augmentation charge: PSQ
     Using radial grid of 1183 points,  6 beta functions with: 
                l(1) =   0
                l(2) =   0
                l(3) =   1
                l(4) =   1
                l(5) =   2
                l(6) =   2
     Q(r) pseudized with 0 coefficients 


     atomic species   valence    mass     pseudopotential
        B              3.00    10.81100     B ( 1.00)
        N              5.00    14.00674     N ( 1.00)
        Cr1           14.00    51.99610     Cr( 1.00)
        Cr2           14.00    51.99610     Cr( 1.00)

     Starting magnetic structure 
     atomic species   magnetization
        B            0.000
        N            0.000
        Cr1          1.000
        Cr2          1.000

     No symmetry found



   Cartesian axes

     site n.     atom                  positions (alat units)
         1           B   tau(   1) = (  -0.1250000   0.2165064   0.8985623  )
         2           B   tau(   2) = (   0.3750000   0.6495191   0.8985623  )
         3           B   tau(   3) = (   0.2500000   0.0000000   0.8985623  )
         4           B   tau(   4) = (   0.7500000   0.0000000   0.8985623  )
         5           B   tau(   5) = (   0.1250000   0.2165064   0.8985623  )
         6           B   tau(   6) = (  -0.3750000   0.6495191   0.8985623  )
         7           N   tau(   7) = (   0.7500005   0.2886748   0.8985623  )
         8           N   tau(   8) = (   0.3750005   0.5051812   0.8985623  )
         9           N   tau(   9) = (   0.3750005   0.0721685   0.8985623  )
        10           N   tau(  10) = (   0.6250005   0.0721685   0.8985623  )
        11           N   tau(  11) = (   0.2500005   0.2886748   0.8985623  )
        12           N   tau(  12) = (   0.6250005   0.5051812   0.8985623  )
        13           N   tau(  13) = (   0.0000005   0.2886748   0.8985623  )
        14           N   tau(  14) = (   0.2500005   0.7216875   0.8985623  )
        15           N   tau(  15) = (  -0.2499995   0.7216875   0.8985623  )
        16           B   tau(  16) = (   0.0000000   0.4330127   0.8985623  )
        17           B   tau(  17) = (   0.1250000   0.6495191   0.8985623  )
        18           B   tau(  18) = (  -0.1250000   0.6495191   0.8985623  )
        19           B   tau(  19) = (   0.3750000   0.2165064   0.8985623  )
        20           B   tau(  20) = (   0.6250000   0.2165064   0.8985623  )
        21           B   tau(  21) = (   0.5000000   0.4330127   0.8985623  )
        22           N   tau(  22) = (   0.5000005   0.2886748   0.8985623  )
        23           B   tau(  23) = (  -0.2500000   0.4330127   0.8985623  )
        24           B   tau(  24) = (   0.2500000   0.4330127   0.8985623  )
        25           B   tau(  25) = (   0.5000000   0.0000000   0.8985623  )
        26           N   tau(  26) = (  -0.1249995   0.5051812   0.8985623  )
        27           N   tau(  27) = (   0.1250005   0.5051812   0.8985623  )
        28           N   tau(  28) = (   0.0000005   0.7216875   0.8985623  )
        29           N   tau(  29) = (   0.5000005   0.7216875   0.8985623  )
        30           N   tau(  30) = (   0.1250005   0.0721685   0.8985623  )
        31           N   tau(  31) = (   0.8750005   0.0721685   0.8985623  )
        32           B   tau(  32) = (   0.0000000   0.0000000   0.8985623  )
        33           Cr1 tau(  33) = (   0.4500000   0.3464102   1.2040735  )
        34           Cr2 tau(  34) = (   0.0500000   0.3464102   1.2040735  )

     number of k points=    15  Gaussian smearing, width (Ry)=  0.0000
                       cart. coord. in units 2pi/alat
        k(    1) = (   0.1666667   0.2886751   0.0000000), wk =   0.0740741
        k(    2) = (   0.1666667  -0.4811252   0.0000000), wk =   0.0740741
        k(    3) = (   0.1666667  -0.0962250   0.0000000), wk =   0.0740741
        k(    4) = (  -0.5000000  -0.8660254   0.0000000), wk =   0.0370370
        k(    5) = (  -0.1666667   0.2886751   0.0000000), wk =   0.0740741
        k(    6) = (   0.3333333   0.0000000   0.0000000), wk =   0.0740741
        k(    7) = (  -0.1666667  -0.4811252   0.0000000), wk =   0.0740741
        k(    8) = (   0.5000000  -0.0962250   0.0000000), wk =   0.0740741
        k(    9) = (  -0.3333333  -0.3849002   0.0000000), wk =   0.0740741
        k(   10) = (   0.5000000   0.0962250   0.0000000), wk =   0.0740741
        k(   11) = (  -0.3333333   0.3849002   0.0000000), wk =   0.0740741
        k(   12) = (  -0.1666667  -0.0962250   0.0000000), wk =   0.0740741
        k(   13) = (  -0.0000000  -0.1924501   0.0000000), wk =   0.0740741
        k(   14) = (   0.5000000  -0.8660254   0.0000000), wk =   0.0370370
        k(   15) = (  -1.0000000   0.0000000   0.0000000), wk =   0.0370370

     Dense  grid:  1741401 G-vectors     FFT dimensions: ( 135, 135, 240)

     Smooth grid:   474235 G-vectors     FFT dimensions: (  90,  90, 160)

     Estimated max dynamical RAM per process >     218.62 MB

     Estimated total dynamical RAM >      10.25 GB
     Generating pointlists ...
     new r_m :   0.0595 (alat units)  1.1269 (a.u.) for type    1
     new r_m :   0.0595 (alat units)  1.1269 (a.u.) for type    2
     new r_m :   0.1299 (alat units)  2.4587 (a.u.) for type    3
     new r_m :   0.1299 (alat units)  2.4587 (a.u.) for type    4

     Initial potential from superposition of free atoms

     starting charge  155.99382, renormalised to  156.00000

     negative rho (up, down):  6.546E-03 4.655E-04
     Starting wfcs are  148 randomized atomic wfcs
     Checking if some PAW data can be deallocated... 

     total cpu time spent up to now is       19.7 secs

     Self-consistent Calculation

     iteration #  1     ecut=    48.00 Ry     beta= 0.50
     Davidson diagonalization with overlap
     ethr =  1.00E-02,  avg # of iterations =  2.8

     negative rho (up, down):  4.713E-03 2.923E-03

     total cpu time spent up to now is       59.6 secs

     total energy              =   -1130.76559553 Ry
     estimated scf accuracy    <      11.37149795 Ry

     total magnetization       =    12.00 Bohr mag/cell
     absolute magnetization    =    12.16 Bohr mag/cell

     iteration #  2     ecut=    48.00 Ry     beta= 0.50
     Davidson diagonalization with overlap
     ethr =  7.29E-03,  avg # of iterations =  2.7

     negative rho (up, down):  7.346E-03 9.574E-03

     total cpu time spent up to now is       96.7 secs

     total energy              =   -1133.05259299 Ry
     estimated scf accuracy    <       3.29384501 Ry

     total magnetization       =    11.78 Bohr mag/cell
     absolute magnetization    =    11.78 Bohr mag/cell

     iteration #  3     ecut=    48.00 Ry     beta= 0.50
     Davidson diagonalization with overlap
     ethr =  2.11E-03,  avg # of iterations =  6.5

     negative rho (up, down):  3.363E-03 4.877E-03

     total cpu time spent up to now is      133.4 secs

     total energy              =   -1133.61710892 Ry
     estimated scf accuracy    <       0.67778486 Ry

     total magnetization       =    12.00 Bohr mag/cell
     absolute magnetization    =    12.05 Bohr mag/cell

     iteration #  4     ecut=    48.00 Ry     beta= 0.50
     Davidson diagonalization with overlap
     ethr =  4.34E-04,  avg # of iterations =  7.3

     negative rho (up, down):  6.804E-03 1.340E-02

     total cpu time spent up to now is      170.5 secs

     total energy              =   -1133.80015333 Ry
     estimated scf accuracy    <       0.26026342 Ry

     total magnetization       =    12.00 Bohr mag/cell
     absolute magnetization    =    12.00 Bohr mag/cell

     iteration #  5     ecut=    48.00 Ry     beta= 0.50
     Davidson diagonalization with overlap
     c_bands:  1 eigenvalues not converged
     ethr =  1.67E-04,  avg # of iterations =  8.1

     negative rho (up, down):  4.557E-03 9.925E-03

     total cpu time spent up to now is      208.3 secs

     total energy              =   -1133.80956429 Ry
     estimated scf accuracy    <       0.02258067 Ry

     total magnetization       =    12.00 Bohr mag/cell
     absolute magnetization    =    12.00 Bohr mag/cell

     iteration #  6     ecut=    48.00 Ry     beta= 0.50
     Davidson diagonalization with overlap
     c_bands:  1 eigenvalues not converged
     c_bands:  1 eigenvalues not converged
     ethr =  1.45E-05,  avg # of iterations = 13.3

     negative rho (up, down):  3.386E-03 8.018E-03

     total cpu time spent up to now is      261.0 secs

     total energy              =   -1133.81448304 Ry
     estimated scf accuracy    <       0.00297907 Ry

     total magnetization       =    12.00 Bohr mag/cell
     absolute magnetization    =    12.01 Bohr mag/cell

     iteration #  7     ecut=    48.00 Ry     beta= 0.50
     Davidson diagonalization with overlap
     c_bands:  1 eigenvalues not converged
     c_bands:  2 eigenvalues not converged
     ethr =  1.91E-06,  avg # of iterations =  9.3

     negative rho (up, down):  3.006E-03 7.439E-03

     total cpu time spent up to now is      305.6 secs

     total energy              =   -1133.81536486 Ry
     estimated scf accuracy    <       0.00033261 Ry

     total magnetization       =    12.00 Bohr mag/cell
     absolute magnetization    =    12.00 Bohr mag/cell

     iteration #  8     ecut=    48.00 Ry     beta= 0.50
     Davidson diagonalization with overlap
     c_bands:  2 eigenvalues not converged
     ethr =  2.13E-07,  avg # of iterations =  3.6

     negative rho (up, down):  2.878E-03 7.253E-03

     total cpu time spent up to now is      339.0 secs

     total energy              =   -1133.81545740 Ry
     estimated scf accuracy    <       0.00012542 Ry

     total magnetization       =    12.00 Bohr mag/cell
     absolute magnetization    =    12.00 Bohr mag/cell

     iteration #  9     ecut=    48.00 Ry     beta= 0.50
     Davidson diagonalization with overlap
     ethr =  8.04E-08,  avg # of iterations =  2.7

     negative rho (up, down):  2.838E-03 7.240E-03

     total cpu time spent up to now is      370.1 secs

     total energy              =   -1133.81556172 Ry
     estimated scf accuracy    <       0.00001105 Ry

     total magnetization       =    12.00 Bohr mag/cell
     absolute magnetization    =    12.00 Bohr mag/cell

     iteration # 10     ecut=    48.00 Ry     beta= 0.50
     Davidson diagonalization with overlap
     ethr =  7.09E-09,  avg # of iterations =  4.1

     negative rho (up, down):  2.826E-03 7.242E-03

     total cpu time spent up to now is      411.1 secs

     total energy              =   -1133.81558867 Ry
     estimated scf accuracy    <       0.00000500 Ry

     total magnetization       =    12.00 Bohr mag/cell
     absolute magnetization    =    12.00 Bohr mag/cell

     iteration # 11     ecut=    48.00 Ry     beta= 0.50
     Davidson diagonalization with overlap
     ethr =  3.21E-09,  avg # of iterations =  2.4

     negative rho (up, down):  2.822E-03 7.251E-03

     total cpu time spent up to now is      447.4 secs

     total energy              =   -1133.81561244 Ry
     estimated scf accuracy    <       0.00000042 Ry

     total magnetization       =    12.00 Bohr mag/cell
     absolute magnetization    =    12.00 Bohr mag/cell

     iteration # 12     ecut=    48.00 Ry     beta= 0.50
     Davidson diagonalization with overlap
     ethr =  2.67E-10,  avg # of iterations =  3.8

     negative rho (up, down):  2.821E-03 7.254E-03

     total cpu time spent up to now is      482.0 secs

     total energy              =   -1133.81562388 Ry
     estimated scf accuracy    <       0.00000015 Ry

     total magnetization       =    12.00 Bohr mag/cell
     absolute magnetization    =    12.00 Bohr mag/cell

     iteration # 13     ecut=    48.00 Ry     beta= 0.50
     Davidson diagonalization with overlap
     ethr =  9.81E-11,  avg # of iterations =  3.0

     negative rho (up, down):  2.820E-03 7.256E-03
 
     Magnetic moment per site:
     atom:    1    charge:    0.8803    magn:    0.0009    constr:    0.0000
     atom:    2    charge:    0.8804    magn:    0.0005    constr:    0.0000
     atom:    3    charge:    0.8803    magn:    0.0001    constr:    0.0000
     atom:    4    charge:    0.8803    magn:    0.0001    constr:    0.0000
     atom:    5    charge:    0.8805    magn:    0.0007    constr:    0.0000
     atom:    6    charge:    0.8803    magn:    0.0002    constr:    0.0000
     atom:    7    charge:    2.8608    magn:    0.0018    constr:    0.0000
     atom:    8    charge:    2.8607    magn:    0.0060    constr:    0.0000
     atom:    9    charge:    2.8609    magn:    0.0016    constr:    0.0000
     atom:   10    charge:    2.8609    magn:    0.0008    constr:    0.0000
     atom:   11    charge:    2.8606    magn:    0.0085    constr:    0.0000
     atom:   12    charge:    2.8608    magn:    0.0031    constr:    0.0000
     atom:   13    charge:    2.8597    magn:    0.0108    constr:    0.0000
     atom:   14    charge:    2.8599    magn:    0.0003    constr:    0.0000
     atom:   15    charge:    2.8599    magn:    0.0001    constr:    0.0000
     atom:   16    charge:    0.8804    magn:    0.0003    constr:    0.0000
     atom:   17    charge:    0.8800    magn:    0.0005    constr:    0.0000
     atom:   18    charge:    0.8800    magn:    0.0002    constr:    0.0000
     atom:   19    charge:    0.8800    magn:    0.0007    constr:    0.0000
     atom:   20    charge:    0.8798    magn:    0.0009    constr:    0.0000
     atom:   21    charge:    0.8802    magn:    0.0003    constr:    0.0000
     atom:   22    charge:    2.8610    magn:    0.0108    constr:    0.0000
     atom:   23    charge:    0.8798    magn:    0.0003    constr:    0.0000
     atom:   24    charge:    0.8799    magn:    0.0001    constr:    0.0000
     atom:   25    charge:    0.8799    magn:    0.0002    constr:    0.0000
     atom:   26    charge:    2.8597    magn:    0.0031    constr:    0.0000
     atom:   27    charge:    2.8596    magn:    0.0060    constr:    0.0000
     atom:   28    charge:    2.8598    magn:    0.0003    constr:    0.0000
     atom:   29    charge:    2.8596    magn:    0.0003    constr:    0.0000
     atom:   30    charge:    2.8595    magn:    0.0016    constr:    0.0000
     atom:   31    charge:    2.8595    magn:    0.0008    constr:    0.0000
     atom:   32    charge:    0.8802    magn:    0.0002    constr:    0.0000
     atom:   33    charge:   12.8321    magn:    4.8206    constr:    0.0000
     atom:   34    charge:   12.8321    magn:    4.8205    constr:    0.0000

     total cpu time spent up to now is      513.8 secs

     End of self-consistent calculation

 ------ SPIN UP ------------


          k = 0.1667 0.2887 0.0000 ( 59267 PWs)   bands (ev):

   -72.5053 -72.5052 -43.9706 -43.9698 -43.9650 -43.9643 -43.9572 -43.9570
   -21.2733 -20.6931 -20.6754 -20.1371 -20.1157 -19.6200 -19.6020 -19.1255
   -18.7289 -18.7130 -18.4895 -18.4700 -18.2213 -18.1132 -18.1001 -17.8750
   -12.5097 -12.2365 -12.2226 -11.8482 -11.8409 -11.6835 -11.2221 -11.2094
   -10.4179 -10.3926 -10.1462 -10.1370  -9.6166  -9.6112  -8.8666  -8.8530
    -8.8444  -8.7971  -8.7814  -8.6214  -8.2223  -8.0815  -8.0410  -7.8566
    -7.8504  -7.4653  -7.4609  -7.3269  -7.2662  -7.2363  -7.2289  -6.9912
    -6.9749  -6.5978  -6.5589  -6.1799  -6.1773  -5.8980  -5.4439  -5.3221
    -5.3021  -5.2255  -4.9538  -4.9112  -4.5329  -4.3835  -4.3635  -4.0042
    -2.5155  -1.5642  -1.5018  -1.4823  -1.4640  -1.4209  -1.3945  -1.3669
    -1.3569  -1.3350  -1.2990  -1.1940   0.6040   0.7264   1.0460   1.1305
     1.2104   1.4105   1.4536   1.5573   1.5710   1.7139

          k = 0.1667-0.4811 0.0000 ( 59291 PWs)   bands (ev):

   -72.5053 -72.5052 -43.9706 -43.9698 -43.9650 -43.9643 -43.9572 -43.9571
   -21.1434 -20.9378 -20.7486 -20.1869 -19.8303 -19.4928 -19.3429 -19.2007
   -19.0403 -18.8054 -18.6675 -18.5688 -18.1760 -18.1136 -17.9477 -17.7493
   -12.3739 -12.1391 -12.0698 -11.9317 -11.7080 -11.6814 -11.5777 -10.9671
   -10.9157 -10.6491 -10.5481  -9.8858  -9.7185  -9.3614  -9.1364  -8.6961
    -8.6486  -8.5783  -8.4145  -8.3929  -8.1867  -8.1508  -8.0905  -8.0733
    -7.7140  -7.6485  -7.5203  -7.4981  -7.3832  -7.1960  -7.0931  -6.8866
    -6.6475  -6.4165  -6.2021  -6.1830  -5.9997  -5.9546  -5.8089  -5.7703
    -5.4765  -5.4283  -5.2348  -5.0652  -4.4718  -4.3711  -4.1160  -3.7918
    -2.5090  -1.5695  -1.5015  -1.4793  -1.4637  -1.4188  -1.3987  -1.3668
    -1.3562  -1.3350  -1.2992  -1.1948   0.5751   0.6290   1.0245   1.1061
     1.1582   1.2122   1.3424   1.7787   1.8491   1.9043

          k = 0.1667-0.0962 0.0000 ( 59226 PWs)   bands (ev):

   -72.5053 -72.5052 -43.9706 -43.9698 -43.9650 -43.9643 -43.9572 -43.9570
   -21.3396 -20.5628 -20.3698 -20.3662 -20.0148 -20.0063 -19.8306 -18.7551
   -18.7499 -18.4060 -18.3892 -18.3846 -18.2997 -18.2789 -18.1015 -18.0969
   -12.5368 -12.5242 -12.4330 -11.6063 -11.6020 -11.4577 -11.4397 -10.9508
   -10.9494  -9.9540  -9.9525  -9.7014  -9.4038  -9.3943  -9.2555  -9.2536
    -9.0672  -9.0652  -8.9506  -8.3485  -8.3472  -7.9288  -7.9224  -7.9105
    -7.8710  -7.7956  -7.6297  -7.6160  -7.1544  -7.1238  -6.9850  -6.9135
    -6.9103  -6.8752  -6.5558  -6.5539  -6.2827  -5.3694  -5.3529  -5.1686
    -5.0907  -4.8433  -4.8136  -4.7872  -4.6504  -4.6156  -4.3726  -4.3606
    -2.5221  -1.5591  -1.5023  -1.4851  -1.4642  -1.4240  -1.3910  -1.3669
    -1.3576  -1.3350  -1.2988  -1.1932   0.6227   0.8243   1.0132   1.1402
     1.2427   1.3151   1.4157   1.5497   1.6260   1.6782

          k =-0.5000-0.8660 0.0000 ( 59292 PWs)   bands (ev):

   -72.5053 -72.5052 -43.9706 -43.9698 -43.9650 -43.9643 -43.9572 -43.9570
   -21.0845 -21.0645 -20.4941 -20.4911 -19.4586 -19.4509 -19.4345 -19.4306
   -19.0237 -19.0085 -18.3599 -18.3512 -18.3491 -18.3192 -17.8184 -17.8146
   -12.1041 -12.0956 -12.0904 -12.0722 -11.9038 -11.8977 -11.3596 -11.3473
   -10.2613 -10.2585 -10.1611 -10.1575 -10.1535 -10.1503  -8.6197  -8.5796
    -8.5777  -8.5702  -8.5671  -8.5565  -7.8908  -7.8878  -7.8855  -7.8850
    -7.8467  -7.8437  -7.7997  -7.7892  -7.5213  -7.5052  -6.6368  -6.6330
    -6.3930  -6.3659  -6.3255  -6.3129  -6.2195  -6.2083  -5.7378  -5.7217
    -5.5764  -5.5617  -4.7648  -4.7430  -4.7393  -4.6924  -3.9080  -3.8983
    -2.4535  -1.6604  -1.4971  -1.4792  -1.4578  -1.4180  -1.4015  -1.3688
    -1.3584  -1.3447  -1.3082  -1.2858   0.8406   1.0299   1.0689   1.1794
     1.2651   1.3261   1.4678   1.5747   1.6103   1.6441

          k =-0.1667 0.2887 0.0000 ( 59267 PWs)   bands (ev):

   -72.5053 -72.5052 -43.9706 -43.9698 -43.9650 -43.9643 -43.9572 -43.9570
   -21.2733 -20.6931 -20.6754 -20.1371 -20.1157 -19.6200 -19.6021 -19.1255
   -18.7288 -18.7130 -18.4895 -18.4700 -18.2213 -18.1131 -18.1001 -17.8750
   -12.5097 -12.2365 -12.2226 -11.8482 -11.8409 -11.6835 -11.2220 -11.2094
   -10.4179 -10.3926 -10.1462 -10.1370  -9.6165  -9.6112  -8.8665  -8.8530
    -8.8444  -8.7971  -8.7814  -8.6213  -8.2224  -8.0815  -8.0410  -7.8565
    -7.8504  -7.4654  -7.4609  -7.3269  -7.2662  -7.2362  -7.2289  -6.9912
    -6.9750  -6.5978  -6.5589  -6.1799  -6.1773  -5.8980  -5.4440  -5.3221
    -5.3022  -5.2254  -4.9538  -4.9112  -4.5329  -4.3835  -4.3635  -4.0042
    -2.5155  -1.5643  -1.5018  -1.4823  -1.4640  -1.4209  -1.3945  -1.3669
    -1.3569  -1.3350  -1.2990  -1.1940   0.6040   0.7264   1.0460   1.1306
     1.2104   1.4105   1.4536   1.5572   1.5708   1.7139

          k = 0.3333 0.0000 0.0000 ( 59267 PWs)   bands (ev):

   -72.5053 -72.5052 -43.9706 -43.9698 -43.9650 -43.9643 -43.9572 -43.9571
   -21.2728 -20.7137 -20.6546 -20.1357 -20.1157 -19.6408 -19.5830 -19.1276
   -18.7423 -18.6943 -18.4908 -18.4709 -18.2173 -18.1333 -18.0860 -17.8742
   -12.5091 -12.2361 -12.2230 -11.8554 -11.8361 -11.6817 -11.2357 -11.1961
   -10.4164 -10.3929 -10.1568 -10.1271  -9.6211  -9.6054  -8.8687  -8.8528
    -8.8406  -8.8139  -8.7653  -8.6221  -8.2242  -8.1314  -7.9899  -7.8547
    -7.8500  -7.4705  -7.4559  -7.3217  -7.2678  -7.2437  -7.2210  -6.9916
    -6.9760  -6.6456  -6.5175  -6.1822  -6.1741  -5.9038  -5.4437  -5.3380
    -5.2749  -5.2259  -4.9588  -4.9100  -4.5249  -4.4107  -4.3465  -4.0039
    -2.4809  -1.6187  -1.4987  -1.4821  -1.4602  -1.4221  -1.3958  -1.3671
    -1.3586  -1.3415  -1.3023  -1.2653   0.8608   0.9651   1.0722   1.1904
     1.2168   1.3646   1.4370   1.5083   1.5528   1.6322

          k =-0.1667-0.4811 0.0000 ( 59291 PWs)   bands (ev):

   -72.5053 -72.5052 -43.9706 -43.9698 -43.9650 -43.9643 -43.9572 -43.9571
   -21.1434 -20.9378 -20.7486 -20.1869 -19.8303 -19.4927 -19.3429 -19.2007
   -19.0403 -18.8054 -18.6675 -18.5688 -18.1760 -18.1136 -17.9477 -17.7493
   -12.3739 -12.1391 -12.0698 -11.9317 -11.7080 -11.6813 -11.5778 -10.9671
   -10.9157 -10.6491 -10.5480  -9.8857  -9.7185  -9.3614  -9.1365  -8.6961
    -8.6485  -8.5784  -8.4144  -8.3929  -8.1866  -8.1508  -8.0906  -8.0734
    -7.7140  -7.6486  -7.5203  -7.4981  -7.3832  -7.1960  -7.0930  -6.8866
    -6.6476  -6.4166  -6.2021  -6.1830  -5.9997  -5.9545  -5.8089  -5.7703
    -5.4765  -5.4283  -5.2348  -5.0652  -4.4718  -4.3711  -4.1160  -3.7918
    -2.5090  -1.5695  -1.5015  -1.4793  -1.4637  -1.4188  -1.3988  -1.3668
    -1.3562  -1.3350  -1.2992  -1.1948   0.5751   0.6290   1.0245   1.1061
     1.1582   1.2122   1.3425   1.7788   1.8491   1.9041

          k = 0.5000-0.0962 0.0000 ( 59291 PWs)   bands (ev):

   -72.5053 -72.5052 -43.9706 -43.9697 -43.9650 -43.9643 -43.9572 -43.9571
   -21.1406 -20.9458 -20.7433 -20.1852 -19.8305 -19.4940 -19.3499 -19.1952
   -19.0414 -18.8053 -18.6577 -18.5753 -18.1653 -18.1292 -17.9441 -17.7491
   -12.3725 -12.1398 -12.0678 -11.9358 -11.7189 -11.6683 -11.5799 -10.9680
   -10.9130 -10.6473 -10.5505  -9.8836  -9.7191  -9.3624  -9.1358  -8.6849
    -8.6494  -8.5766  -8.4257  -8.4185  -8.1843  -8.1289  -8.1026  -8.0623
    -7.7101  -7.6493  -7.5194  -7.4994  -7.3777  -7.1974  -7.0937  -6.8878
    -6.6479  -6.4205  -6.2250  -6.1825  -5.9828  -5.9538  -5.8082  -5.7729
    -5.4779  -5.4239  -5.2133  -5.0811  -4.4504  -4.4002  -4.1098  -3.7927
    -2.4536  -1.6604  -1.4970  -1.4790  -1.4578  -1.4190  -1.4013  -1.3689
    -1.3583  -1.3447  -1.3083  -1.2858   0.8114   1.0044   1.1146   1.1428
     1.1916   1.3037   1.3907   1.5015   1.6364   1.7883

          k =-0.3333-0.3849 0.0000 ( 59291 PWs)   bands (ev):

   -72.5053 -72.5052 -43.9706 -43.9697 -43.9650 -43.9643 -43.9572 -43.9571
   -21.1415 -20.9430 -20.7453 -20.1850 -19.8323 -19.4925 -19.3448 -19.1984
   -19.0447 -18.8033 -18.6592 -18.5745 -18.1672 -18.1266 -17.9443 -17.7493
   -12.3733 -12.1375 -12.0703 -11.9343 -11.7088 -11.6798 -11.5790 -10.9675
   -10.9132 -10.6467 -10.5512  -9.8842  -9.7192  -9.3621  -9.1365  -8.6887
    -8.6478  -8.5783  -8.4179  -8.4123  -8.1862  -8.1365  -8.0909  -8.0751
    -7.7107  -7.6474  -7.5262  -7.4933  -7.3771  -7.1976  -7.0943  -6.8932
    -6.6458  -6.4154  -6.2084  -6.1850  -5.9930  -5.9528  -5.8085  -5.7840
    -5.4776  -5.4184  -5.2137  -5.0812  -4.4530  -4.3977  -4.1095  -3.7926
    -2.4735  -1.6254  -1.4985  -1.4794  -1.4599  -1.4184  -1.4005  -1.3684
    -1.3575  -1.3413  -1.3025  -1.2657   0.7232   0.9566   1.0263   1.1056
     1.1918   1.2393   1.3263   1.5842   1.7512   1.8500

          k = 0.5000 0.0962 0.0000 ( 59291 PWs)   bands (ev):

   -72.5053 -72.5052 -43.9706 -43.9697 -43.9650 -43.9643 -43.9572 -43.9571
   -21.1406 -20.9458 -20.7433 -20.1852 -19.8305 -19.4940 -19.3499 -19.1952
   -19.0413 -18.8053 -18.6577 -18.5753 -18.1652 -18.1292 -17.9441 -17.7491
   -12.3725 -12.1398 -12.0678 -11.9358 -11.7188 -11.6683 -11.5799 -10.9679
   -10.9130 -10.6473 -10.5505  -9.8836  -9.7191  -9.3624  -9.1358  -8.6849
    -8.6494  -8.5766  -8.4257  -8.4185  -8.1843  -8.1289  -8.1026  -8.0623
    -7.7101  -7.6493  -7.5195  -7.4994  -7.3777  -7.1975  -7.0936  -6.8878
    -6.6478  -6.4205  -6.2250  -6.1824  -5.9828  -5.9538  -5.8083  -5.7729
    -5.4779  -5.4239  -5.2133  -5.0811  -4.4504  -4.4002  -4.1099  -3.7927
    -2.4536  -1.6604  -1.4970  -1.4790  -1.4578  -1.4190  -1.4013  -1.3689
    -1.3583  -1.3447  -1.3083  -1.2858   0.8114   1.0044   1.1146   1.1428
     1.1915   1.3038   1.3906   1.5014   1.6364   1.7883

          k =-0.3333 0.3849 0.0000 ( 59291 PWs)   bands (ev):

   -72.5053 -72.5052 -43.9706 -43.9697 -43.9650 -43.9643 -43.9572 -43.9571
   -21.1416 -20.9430 -20.7453 -20.1850 -19.8323 -19.4925 -19.3448 -19.1984
   -19.0447 -18.8033 -18.6592 -18.5745 -18.1672 -18.1266 -17.9443 -17.7493
   -12.3733 -12.1375 -12.0703 -11.9343 -11.7088 -11.6798 -11.5790 -10.9676
   -10.9131 -10.6466 -10.5512  -9.8842  -9.7192  -9.3621  -9.1365  -8.6887
    -8.6478  -8.5783  -8.4179  -8.4123  -8.1863  -8.1365  -8.0908  -8.0752
    -7.7106  -7.6474  -7.5262  -7.4933  -7.3771  -7.1976  -7.0944  -6.8932
    -6.6458  -6.4154  -6.2084  -6.1851  -5.9930  -5.9529  -5.8084  -5.7840
    -5.4775  -5.4184  -5.2137  -5.0812  -4.4531  -4.3977  -4.1095  -3.7926
    -2.4735  -1.6254  -1.4985  -1.4794  -1.4599  -1.4184  -1.4005  -1.3684
    -1.3575  -1.3413  -1.3025  -1.2657   0.7232   0.9566   1.0263   1.1056
     1.1918   1.2393   1.3263   1.5842   1.7512   1.8501

          k =-0.1667-0.0962 0.0000 ( 59226 PWs)   bands (ev):

   -72.5053 -72.5052 -43.9706 -43.9698 -43.9649 -43.9643 -43.9572 -43.9570
   -21.3396 -20.5628 -20.3698 -20.3662 -20.0148 -20.0063 -19.8306 -18.7551
   -18.7499 -18.4060 -18.3892 -18.3846 -18.2997 -18.2790 -18.1014 -18.0969
   -12.5368 -12.5242 -12.4330 -11.6063 -11.6020 -11.4577 -11.4397 -10.9508
   -10.9494  -9.9540  -9.9525  -9.7014  -9.4038  -9.3942  -9.2555  -9.2536
    -9.0672  -9.0653  -8.9506  -8.3486  -8.3473  -7.9288  -7.9224  -7.9105
    -7.8709  -7.7956  -7.6297  -7.6160  -7.1544  -7.1238  -6.9851  -6.9135
    -6.9103  -6.8752  -6.5558  -6.5539  -6.2828  -5.3694  -5.3529  -5.1685
    -5.0908  -4.8432  -4.8136  -4.7872  -4.6504  -4.6156  -4.3726  -4.3606
    -2.5221  -1.5591  -1.5023  -1.4851  -1.4642  -1.4240  -1.3910  -1.3669
    -1.3576  -1.3350  -1.2988  -1.1932   0.6227   0.8243   1.0132   1.1402
     1.2427   1.3151   1.4157   1.5497   1.6260   1.6782

          k =-0.0000-0.1925 0.0000 ( 59226 PWs)   bands (ev):

   -72.5053 -72.5052 -43.9706 -43.9698 -43.9650 -43.9643 -43.9572 -43.9570
   -21.3397 -20.5573 -20.3864 -20.3589 -20.0163 -19.9972 -19.8345 -18.7614
   -18.7392 -18.4328 -18.3901 -18.3756 -18.2795 -18.2790 -18.1122 -18.0918
   -12.5365 -12.5251 -12.4324 -11.6127 -11.5968 -11.4546 -11.4401 -10.9544
   -10.9477  -9.9576  -9.9488  -9.7017  -9.4043  -9.3925  -9.2563  -9.2535
    -9.0664  -9.0664  -8.9513  -8.3504  -8.3444  -7.9292  -7.9221  -7.8884
    -7.8689  -7.7973  -7.6861  -7.5953  -7.1514  -7.0997  -6.9834  -6.9171
    -6.9084  -6.8892  -6.5596  -6.5494  -6.2833  -5.3854  -5.3246  -5.1690
    -5.0903  -4.8998  -4.8088  -4.7699  -4.6198  -4.6122  -4.3993  -4.3456
    -2.5374  -1.5393  -1.5039  -1.4850  -1.4660  -1.4235  -1.3904  -1.3669
    -1.3569  -1.3319  -1.2978  -1.1430   0.4704   0.7569   0.9902   1.1139
     1.2122   1.3627   1.4191   1.5832   1.6392   1.7780

          k = 0.5000-0.8660 0.0000 ( 59292 PWs)   bands (ev):

   -72.5053 -72.5052 -43.9706 -43.9698 -43.9650 -43.9643 -43.9572 -43.9570
   -21.0845 -21.0645 -20.4941 -20.4911 -19.4586 -19.4509 -19.4345 -19.4306
   -19.0236 -19.0086 -18.3599 -18.3511 -18.3491 -18.3192 -17.8184 -17.8146
   -12.1042 -12.0955 -12.0904 -12.0723 -11.9038 -11.8977 -11.3595 -11.3473
   -10.2613 -10.2585 -10.1611 -10.1575 -10.1535 -10.1503  -8.6197  -8.5795
    -8.5776  -8.5702  -8.5671  -8.5565  -7.8908  -7.8877  -7.8855  -7.8850
    -7.8467  -7.8438  -7.7997  -7.7892  -7.5214  -7.5053  -6.6368  -6.6329
    -6.3931  -6.3659  -6.3255  -6.3129  -6.2194  -6.2083  -5.7378  -5.7218
    -5.5764  -5.5618  -4.7648  -4.7430  -4.7393  -4.6924  -3.9081  -3.8984
    -2.4535  -1.6604  -1.4971  -1.4792  -1.4578  -1.4180  -1.4015  -1.3688
    -1.3584  -1.3447  -1.3082  -1.2858   0.8406   1.0299   1.0689   1.1794
     1.2651   1.3261   1.4677   1.5748   1.6102   1.6438

          k =-1.0000 0.0000 0.0000 ( 59292 PWs)   bands (ev):

   -72.5053 -72.5052 -43.9706 -43.9698 -43.9650 -43.9643 -43.9572 -43.9570
   -21.1029 -21.0431 -20.5076 -20.4823 -19.4711 -19.4342 -19.4320 -19.4304
   -19.0415 -18.9936 -18.4046 -18.3531 -18.3183 -18.3033 -17.8280 -17.8071
   -12.1355 -12.0984 -12.0691 -12.0556 -11.9103 -11.8919 -11.3755 -11.3330
   -10.2761 -10.2585 -10.1603 -10.1568 -10.1482 -10.1440  -8.6614  -8.6041
    -8.5810  -8.5512  -8.5411  -8.5156  -7.9071  -7.8990  -7.8843  -7.8761
    -7.8526  -7.8360  -7.8288  -7.7640  -7.5401  -7.4889  -6.6413  -6.6263
    -6.4162  -6.3321  -6.3199  -6.3060  -6.2350  -6.1960  -5.7671  -5.7043
    -5.5927  -5.5455  -4.8519  -4.7337  -4.6937  -4.6619  -3.9297  -3.8796
    -2.5250  -1.5482  -1.5030  -1.4792  -1.4654  -1.4188  -1.3980  -1.3656
    -1.3558  -1.3320  -1.2983  -1.1450   0.4635   0.5375   1.0382   1.1086
     1.1166   1.4106   1.5411   1.6004   1.6126   1.9574

 ------ SPIN DOWN ----------


          k = 0.1667 0.2887 0.0000 ( 59267 PWs)   bands (ev):

   -68.1367 -68.1366 -39.6397 -39.6388 -39.6283 -39.6275 -39.6248 -39.6246
   -21.2658 -20.6850 -20.6693 -20.1285 -20.1100 -19.6119 -19.5962 -19.1182
   -18.7192 -18.7063 -18.4812 -18.4640 -18.2124 -18.1059 -18.0949 -17.8677
   -12.5049 -12.2306 -12.2186 -11.8435 -11.8368 -11.6794 -11.2168 -11.2049
   -10.4124 -10.3877 -10.1405 -10.1324  -9.6115  -9.6067  -8.8512  -8.8396
    -8.8343  -8.7919  -8.7775  -8.6169  -8.2180  -8.0517  -8.0208  -7.8516
    -7.8463  -7.4593  -7.4557  -7.2939  -7.2520  -7.2313  -7.2248  -6.9859
    -6.9714  -6.5715  -6.5419  -6.1750  -6.1727  -5.8750  -5.4386  -5.2938
    -5.2801  -5.2206  -4.9281  -4.8967  -4.5084  -4.3627  -4.3490  -3.9848
    -0.3752   0.7217   1.0513   1.1832   1.3089   1.3873   1.4514   1.5187
     1.5488   1.7923   1.9042   2.0906   2.1563   2.2330   2.2667   2.3218
     2.4113   2.4698   2.5226   2.5480   2.5714   2.6194

          k = 0.1667-0.4811 0.0000 ( 59291 PWs)   bands (ev):

   -68.1367 -68.1366 -39.6397 -39.6388 -39.6283 -39.6275 -39.6248 -39.6246
   -21.1353 -20.9318 -20.7413 -20.1795 -19.8233 -19.4855 -19.3358 -19.1932
   -19.0331 -18.7982 -18.6578 -18.5633 -18.1654 -18.1098 -17.9403 -17.7419
   -12.3689 -12.1342 -12.0653 -11.9273 -11.7037 -11.6768 -11.5732 -10.9621
   -10.9103 -10.6436 -10.5436  -9.8801  -9.7138  -9.3562  -9.1316  -8.6632
    -8.6436  -8.5729  -8.4101  -8.3761  -8.1820  -8.1245  -8.0855  -8.0694
    -7.7088  -7.6440  -7.5154  -7.4943  -7.3573  -7.1908  -7.0886  -6.8641
    -6.6419  -6.3938  -6.1813  -6.1775  -5.9764  -5.9489  -5.8040  -5.7493
    -5.4719  -5.4043  -5.2040  -5.0521  -4.4419  -4.3619  -4.0953  -3.7729
    -0.3441   0.6971   1.0002   1.0996   1.1402   1.2621   1.3474   1.7505
     1.8222   1.8867   2.0232   2.0874   2.1987   2.2492   2.2770   2.3297
     2.4053   2.4332   2.4753   2.4974   2.5552   2.6242

          k = 0.1667-0.0962 0.0000 ( 59226 PWs)   bands (ev):

   -68.1367 -68.1366 -39.6397 -39.6388 -39.6283 -39.6275 -39.6248 -39.6246
   -21.3323 -20.5544 -20.3630 -20.3600 -20.0065 -19.9995 -19.8247 -18.7464
   -18.7421 -18.3972 -18.3822 -18.3765 -18.2912 -18.2733 -18.0948 -18.0911
   -12.5311 -12.5201 -12.4284 -11.6017 -11.5978 -11.4518 -11.4360 -10.9459
   -10.9447  -9.9490  -9.9477  -9.6960  -9.3985  -9.3898  -9.2500  -9.2485
    -9.0625  -9.0608  -8.9240  -8.3430  -8.3418  -7.9236  -7.9182  -7.8790
    -7.8635  -7.7912  -7.6067  -7.5984  -7.1234  -7.1040  -6.9801  -6.9088
    -6.9062  -6.8600  -6.5511  -6.5494  -6.2781  -5.3409  -5.3301  -5.1635
    -5.0857  -4.8178  -4.7938  -4.7628  -4.6280  -4.6007  -4.3529  -4.3449
    -0.4045   0.7498   1.0461   1.1192   1.2375   1.4290   1.4927   1.5504
     1.7767   1.8427   1.9586   2.0397   2.0661   2.1380   2.2808   2.3270
     2.4183   2.4438   2.4799   2.5596   2.5844   2.6067

          k =-0.5000-0.8660 0.0000 ( 59292 PWs)   bands (ev):

   -68.1367 -68.1366 -39.6397 -39.6388 -39.6283 -39.6275 -39.6248 -39.6246
   -21.0758 -21.0583 -20.4873 -20.4844 -19.4490 -19.4422 -19.4279 -19.4252
   -19.0155 -19.0030 -18.3505 -18.3424 -18.3410 -18.3155 -17.8109 -17.8078
   -12.0979 -12.0907 -12.0853 -12.0690 -11.8994 -11.8938 -11.3544 -11.3428
   -10.2558 -10.2536 -10.1553 -10.1521 -10.1488 -10.1460  -8.5857  -8.5728
    -8.5722  -8.5641  -8.5534  -8.5480  -7.8855  -7.8828  -7.8810  -7.8803
    -7.8413  -7.8385  -7.7771  -7.7692  -7.5163  -7.5017  -6.6314  -6.6284
    -6.3540  -6.3364  -6.3081  -6.3001  -6.2139  -6.2036  -5.7162  -5.7034
    -5.5706  -5.5577  -4.7375  -4.7193  -4.7167  -4.6814  -3.8873  -3.8806
    -0.2641   0.3953   1.0229   1.0446   1.4034   1.4501   1.4662   1.5720
     1.7527   1.7635   2.0234   2.0436   2.1751   2.2518   2.3354   2.3677
     2.3992   2.4294   2.4982   2.5422   2.5561   2.6428

          k =-0.1667 0.2887 0.0000 ( 59267 PWs)   bands (ev):

   -68.1367 -68.1366 -39.6397 -39.6388 -39.6283 -39.6275 -39.6248 -39.6246
   -21.2658 -20.6850 -20.6693 -20.1285 -20.1100 -19.6119 -19.5962 -19.1182
   -18.7191 -18.7064 -18.4812 -18.4640 -18.2124 -18.1059 -18.0949 -17.8677
   -12.5048 -12.2306 -12.2186 -11.8435 -11.8369 -11.6794 -11.2167 -11.2050
   -10.4125 -10.3877 -10.1404 -10.1325  -9.6114  -9.6067  -8.8511  -8.8395
    -8.8343  -8.7920  -8.7776  -8.6169  -8.2180  -8.0517  -8.0208  -7.8516
    -7.8462  -7.4593  -7.4557  -7.2939  -7.2520  -7.2312  -7.2248  -6.9860
    -6.9714  -6.5715  -6.5419  -6.1750  -6.1727  -5.8750  -5.4386  -5.2938
    -5.2801  -5.2205  -4.9280  -4.8967  -4.5085  -4.3627  -4.3490  -3.9848
    -0.3752   0.7218   1.0514   1.1832   1.3089   1.3873   1.4514   1.5187
     1.5488   1.7923   1.9042   2.0906   2.1563   2.2330   2.2667   2.3218
     2.4112   2.4698   2.5227   2.5479   2.5711   2.6192

          k = 0.3333 0.0000 0.0000 ( 59267 PWs)   bands (ev):

   -68.1367 -68.1366 -39.6397 -39.6388 -39.6283 -39.6275 -39.6248 -39.6246
   -21.2655 -20.7026 -20.6515 -20.1275 -20.1099 -19.6295 -19.5799 -19.1197
   -18.7308 -18.6909 -18.4820 -18.4647 -18.2094 -18.1224 -18.0827 -17.8672
   -12.5044 -12.2302 -12.2189 -11.8500 -11.8322 -11.6778 -11.2291 -11.1928
   -10.4113 -10.3880 -10.1496 -10.1239  -9.6154  -9.6017  -8.8521  -8.8422
    -8.8297  -8.8068  -8.7631  -8.6176  -8.2194  -8.0884  -7.9838  -7.8502
    -7.8458  -7.4635  -7.4516  -7.2902  -7.2533  -7.2380  -7.2179  -6.9860
    -6.9723  -6.6062  -6.5110  -6.1771  -6.1699  -5.8784  -5.4384  -5.3074
    -5.2602  -5.2209  -4.9313  -4.8955  -4.5037  -4.3830  -4.3348  -3.9846
    -0.3324   0.5271   1.0406   1.1806   1.3390   1.4527   1.4783   1.5193
     1.5744   1.7718   2.0317   2.1548   2.2011   2.2171   2.2507   2.3951
     2.4171   2.4530   2.4958   2.5393   2.5687   2.6085

          k =-0.1667-0.4811 0.0000 ( 59291 PWs)   bands (ev):

   -68.1367 -68.1366 -39.6397 -39.6388 -39.6283 -39.6275 -39.6248 -39.6246
   -21.1353 -20.9318 -20.7413 -20.1795 -19.8233 -19.4855 -19.3358 -19.1932
   -19.0331 -18.7982 -18.6578 -18.5633 -18.1654 -18.1098 -17.9403 -17.7419
   -12.3690 -12.1341 -12.0653 -11.9273 -11.7037 -11.6768 -11.5732 -10.9621
   -10.9103 -10.6436 -10.5436  -9.8801  -9.7138  -9.3562  -9.1317  -8.6632
    -8.6436  -8.5729  -8.4100  -8.3761  -8.1820  -8.1245  -8.0856  -8.0694
    -7.7088  -7.6440  -7.5153  -7.4943  -7.3573  -7.1908  -7.0885  -6.8641
    -6.6419  -6.3938  -6.1813  -6.1775  -5.9764  -5.9488  -5.8040  -5.7492
    -5.4719  -5.4043  -5.2040  -5.0521  -4.4419  -4.3619  -4.0953  -3.7729
    -0.3441   0.6971   1.0002   1.0996   1.1402   1.2621   1.3474   1.7506
     1.8222   1.8866   2.0232   2.0873   2.1988   2.2491   2.2772   2.3296
     2.4052   2.4333   2.4753   2.4974   2.5569   2.6241

          k = 0.5000-0.0962 0.0000 ( 59291 PWs)   bands (ev):

   -68.1367 -68.1366 -39.6397 -39.6388 -39.6283 -39.6275 -39.6248 -39.6246
   -21.1331 -20.9378 -20.7374 -20.1782 -19.8234 -19.4864 -19.3410 -19.1892
   -19.0338 -18.7981 -18.6506 -18.5682 -18.1569 -18.1217 -17.9377 -17.7418
   -12.3678 -12.1347 -12.0636 -11.9306 -11.7131 -11.6656 -11.5750 -10.9628
   -10.9081 -10.6421 -10.5456  -9.8784  -9.7144  -9.3570  -9.1312  -8.6568
    -8.6442  -8.5715  -8.4134  -8.3945  -8.1802  -8.1123  -8.0961  -8.0597
    -7.7057  -7.6446  -7.5146  -7.4954  -7.3540  -7.1919  -7.0890  -6.8646
    -6.6421  -6.3961  -6.1932  -6.1779  -5.9670  -5.9484  -5.8034  -5.7506
    -5.4730  -5.4025  -5.1912  -5.0612  -4.4278  -4.3801  -4.0920  -3.7733
    -0.2650   0.4003   0.9947   1.0984   1.1420   1.2830   1.5922   1.7313
     1.7885   2.0146   2.0360   2.1142   2.1483   2.2385   2.3179   2.3553
     2.4219   2.4546   2.4928   2.5331   2.5773   2.6131

          k =-0.3333-0.3849 0.0000 ( 59291 PWs)   bands (ev):

   -68.1367 -68.1366 -39.6397 -39.6388 -39.6283 -39.6275 -39.6248 -39.6246
   -21.1338 -20.9357 -20.7388 -20.1781 -19.8247 -19.4853 -19.3372 -19.1915
   -19.0363 -18.7967 -18.6516 -18.5676 -18.1584 -18.1199 -17.9378 -17.7419
   -12.3685 -12.1328 -12.0658 -11.9295 -11.7044 -11.6754 -11.5742 -10.9624
   -10.9082 -10.6416 -10.5461  -9.8789  -9.7144  -9.3568  -9.1317  -8.6589
    -8.6430  -8.5728  -8.4113  -8.3880  -8.1817  -8.1166  -8.0857  -8.0708
    -7.7062  -7.6430  -7.5203  -7.4902  -7.3537  -7.1921  -7.0895  -6.8678
    -6.6405  -6.3932  -6.1838  -6.1796  -5.9728  -5.9476  -5.8037  -5.7569
    -5.4727  -5.3995  -5.1916  -5.0612  -4.4294  -4.3786  -4.0918  -3.7733
    -0.2951   0.4890   1.0026   1.0669   1.1837   1.2638   1.4786   1.7619
     1.8901   1.9636   2.0195   2.0663   2.1424   2.2543   2.3073   2.3495
     2.3976   2.4538   2.4919   2.5340   2.5754   2.5941

          k = 0.5000 0.0962 0.0000 ( 59291 PWs)   bands (ev):

   -68.1367 -68.1366 -39.6397 -39.6388 -39.6283 -39.6275 -39.6248 -39.6246
   -21.1331 -20.9378 -20.7374 -20.1782 -19.8234 -19.4864 -19.3410 -19.1892
   -19.0338 -18.7981 -18.6506 -18.5682 -18.1569 -18.1217 -17.9377 -17.7418
   -12.3678 -12.1347 -12.0636 -11.9307 -11.7131 -11.6655 -11.5750 -10.9628
   -10.9081 -10.6421 -10.5456  -9.8784  -9.7144  -9.3569  -9.1311  -8.6568
    -8.6442  -8.5716  -8.4134  -8.3945  -8.1802  -8.1123  -8.0960  -8.0597
    -7.7058  -7.6446  -7.5146  -7.4954  -7.3540  -7.1920  -7.0890  -6.8646
    -6.6421  -6.3961  -6.1932  -6.1778  -5.9671  -5.9484  -5.8035  -5.7506
    -5.4730  -5.4025  -5.1912  -5.0612  -4.4278  -4.3801  -4.0920  -3.7733
    -0.2650   0.4002   0.9948   1.0985   1.1420   1.2829   1.5922   1.7312
     1.7884   2.0145   2.0361   2.1142   2.1483   2.2385   2.3178   2.3554
     2.4217   2.4546   2.4926   2.5328   2.5758   2.6106

          k =-0.3333 0.3849 0.0000 ( 59291 PWs)   bands (ev):

   -68.1367 -68.1366 -39.6397 -39.6388 -39.6283 -39.6275 -39.6248 -39.6246
   -21.1338 -20.9357 -20.7388 -20.1781 -19.8247 -19.4853 -19.3372 -19.1915
   -19.0363 -18.7967 -18.6516 -18.5676 -18.1584 -18.1199 -17.9378 -17.7419
   -12.3685 -12.1328 -12.0658 -11.9294 -11.7044 -11.6755 -11.5741 -10.9625
   -10.9082 -10.6416 -10.5461  -9.8789  -9.7144  -9.3567  -9.1317  -8.6589
    -8.6430  -8.5727  -8.4113  -8.3879  -8.1817  -8.1166  -8.0857  -8.0709
    -7.7061  -7.6430  -7.5203  -7.4902  -7.3537  -7.1920  -7.0896  -6.8678
    -6.6405  -6.3932  -6.1838  -6.1797  -5.9728  -5.9477  -5.8036  -5.7569
    -5.4726  -5.3995  -5.1916  -5.0612  -4.4295  -4.3786  -4.0917  -3.7733
    -0.2951   0.4890   1.0026   1.0669   1.1837   1.2638   1.4786   1.7619
     1.8901   1.9636   2.0196   2.0662   2.1424   2.2543   2.3073   2.3493
     2.3975   2.4539   2.4919   2.5338   2.5750   2.5941

          k =-0.1667-0.0962 0.0000 ( 59226 PWs)   bands (ev):

   -68.1367 -68.1366 -39.6397 -39.6388 -39.6283 -39.6275 -39.6248 -39.6246
   -21.3323 -20.5544 -20.3630 -20.3600 -20.0065 -19.9995 -19.8247 -18.7464
   -18.7421 -18.3972 -18.3822 -18.3765 -18.2912 -18.2733 -18.0948 -18.0911
   -12.5311 -12.5201 -12.4284 -11.6016 -11.5977 -11.4518 -11.4360 -10.9459
   -10.9447  -9.9490  -9.9477  -9.6960  -9.3984  -9.3898  -9.2500  -9.2485
    -9.0625  -9.0608  -8.9240  -8.3430  -8.3418  -7.9235  -7.9182  -7.8790
    -7.8635  -7.7913  -7.6067  -7.5984  -7.1234  -7.1040  -6.9801  -6.9088
    -6.9061  -6.8600  -6.5510  -6.5494  -6.2782  -5.3409  -5.3301  -5.1634
    -5.0858  -4.8178  -4.7938  -4.7628  -4.6280  -4.6007  -4.3529  -4.3449
    -0.4045   0.7498   1.0461   1.1192   1.2375   1.4290   1.4927   1.5504
     1.7767   1.8428   1.9586   2.0397   2.0661   2.1380   2.2807   2.3271
     2.4182   2.4436   2.4800   2.5599   2.5841   2.6071

          k =-0.0000-0.1925 0.0000 ( 59226 PWs)   bands (ev):

   -68.1367 -68.1366 -39.6397 -39.6388 -39.6283 -39.6275 -39.6248 -39.6246
   -21.3324 -20.5503 -20.3766 -20.3532 -20.0086 -19.9916 -19.8277 -18.7523
   -18.7330 -18.4179 -18.3828 -18.3693 -18.2759 -18.2736 -18.1039 -18.0861
   -12.5309 -12.5208 -12.4278 -11.6072 -11.5932 -11.4493 -11.4363 -10.9489
   -10.9432  -9.9523  -9.9443  -9.6963  -9.3990  -9.3882  -9.2510  -9.2480
    -9.0619  -9.0618  -8.9244  -8.3449  -8.3390  -7.9242  -7.9179  -7.8701
    -7.8585  -7.7926  -7.6426  -7.5826  -7.1255  -7.0864  -6.9788  -6.9120
    -6.9043  -6.8679  -6.5545  -6.5455  -6.2786  -5.3537  -5.3107  -5.1638
    -5.0853  -4.8519  -4.7903  -4.7525  -4.6098  -4.5985  -4.3712  -4.3330
    -0.4212   0.8736   1.0777   1.0973   1.2387   1.3789   1.4596   1.5477
     1.7261   1.8784   1.9255   1.9464   2.0146   2.1620   2.2744   2.3126
     2.3640   2.4597   2.5283   2.5468   2.6116   2.6682

          k = 0.5000-0.8660 0.0000 ( 59292 PWs)   bands (ev):

   -68.1367 -68.1366 -39.6397 -39.6388 -39.6283 -39.6275 -39.6248 -39.6246
   -21.0758 -21.0583 -20.4873 -20.4844 -19.4490 -19.4422 -19.4279 -19.4252
   -19.0154 -19.0030 -18.3505 -18.3424 -18.3410 -18.3155 -17.8109 -17.8078
   -12.0979 -12.0906 -12.0853 -12.0691 -11.8994 -11.8938 -11.3543 -11.3428
   -10.2558 -10.2536 -10.1553 -10.1522 -10.1488 -10.1460  -8.5857  -8.5728
    -8.5721  -8.5641  -8.5535  -8.5480  -7.8855  -7.8828  -7.8810  -7.8803
    -7.8413  -7.8386  -7.7771  -7.7692  -7.5164  -7.5017  -6.6314  -6.6284
    -6.3540  -6.3364  -6.3081  -6.3001  -6.2138  -6.2036  -5.7162  -5.7034
    -5.5707  -5.5578  -4.7375  -4.7193  -4.7166  -4.6814  -3.8874  -3.8806
    -0.2641   0.3953   1.0229   1.0446   1.4034   1.4500   1.4662   1.5719
     1.7528   1.7634   2.0233   2.0438   2.1750   2.2519   2.3353   2.3678
     2.3994   2.4293   2.4980   2.5423   2.5560   2.6428

          k =-1.0000 0.0000 0.0000 ( 59292 PWs)   bands (ev):

   -68.1367 -68.1366 -39.6397 -39.6388 -39.6283 -39.6275 -39.6248 -39.6246
   -21.0918 -21.0401 -20.4985 -20.4768 -19.4603 -19.4281 -19.4266 -19.4243
   -19.0303 -18.9904 -18.3882 -18.3434 -18.3153 -18.3024 -17.8191 -17.8010
   -12.1264 -12.0928 -12.0667 -12.0539 -11.9051 -11.8888 -11.3687 -11.3298
   -10.2685 -10.2529 -10.1548 -10.1522 -10.1439 -10.1407  -8.6180  -8.5960
    -8.5747  -8.5489  -8.5394  -8.5097  -7.8993  -7.8929  -7.8794  -7.8725
    -7.8342  -7.8330  -7.8042  -7.7513  -7.5329  -7.4870  -6.6356  -6.6225
    -6.3735  -6.3132  -6.3044  -6.2948  -6.2275  -6.1925  -5.7363  -5.6891
    -5.5849  -5.5435  -4.8007  -4.7108  -4.6844  -4.6602  -3.9029  -3.8667
    -0.3644   0.8263   1.0160   1.0823   1.2454   1.3799   1.3935   1.6020
     1.6028   1.6937   1.8769   2.1214   2.1632   2.2436   2.2820   2.3117
     2.4045   2.4811   2.4988   2.5588   2.6260   2.6264

     the Fermi energy is    -0.8555 ev

!    total energy              =   -1133.81562857 Ry

     total all-electron energy =     -6753.491332 Ry
     estimated scf accuracy    <          8.7E-09 Ry
     smearing contrib. (-TS)   =      -0.00000000 Ry
     internal energy E=F+TS    =   -1133.81562857 Ry

     The total energy is F=E-TS. E is the sum of the following terms:
     one-electron contribution =   -3920.94775550 Ry
     hartree contribution      =    1989.02216713 Ry
     xc contribution           =    -186.19829152 Ry
     ewald contribution        =    1343.67772127 Ry
     DFT-D3 Dispersion         =      -0.14074315 Ry
     one-center paw contrib.   =    -359.22872679 Ry

     total magnetization       =    12.00 Bohr mag/cell
     absolute magnetization    =    12.00 Bohr mag/cell

     convergence has been achieved in  13 iterations

     Writing output data file ./mytmp/Crdimer0.2-0.4.save/
 
     init_run     :     17.94s CPU     19.36s WALL (       1 calls)
     electrons    :    464.01s CPU    494.27s WALL (       1 calls)

     Called by init_run:
     wfcinit      :     13.44s CPU     14.03s WALL (       1 calls)
     potinit      :      1.30s CPU      1.67s WALL (       1 calls)
     hinit0       :      1.53s CPU      1.64s WALL (       1 calls)

     Called by electrons:
     c_bands      :    374.27s CPU    396.37s WALL (      13 calls)
     sum_band     :     69.54s CPU     74.30s WALL (      13 calls)
     v_of_rho     :      4.22s CPU      4.59s WALL (      14 calls)
     newd         :      8.94s CPU     11.71s WALL (      14 calls)
     PAW_pot      :      6.21s CPU      6.91s WALL (      14 calls)
     mix_rho      :      0.91s CPU      0.93s WALL (      13 calls)

     Called by c_bands:
     init_us_2    :      4.70s CPU      4.75s WALL (     810 calls)
     cegterg      :    362.77s CPU    384.77s WALL (     390 calls)

     Called by *egterg:
     cdiaghg      :     24.06s CPU     37.15s WALL (    2478 calls)
     h_psi        :    233.54s CPU    241.48s WALL (    2508 calls)
     s_psi        :     25.78s CPU     25.84s WALL (    2508 calls)
     g_psi        :      0.71s CPU      0.73s WALL (    2088 calls)

     Called by h_psi:
     h_psi:calbec :     26.46s CPU     27.10s WALL (    2508 calls)
     vloc_psi     :    178.45s CPU    185.64s WALL (    2508 calls)
     add_vuspsi   :     26.57s CPU     26.68s WALL (    2508 calls)

     General routines
     calbec       :     35.09s CPU     35.91s WALL (    2898 calls)
     fft          :      3.82s CPU      4.59s WALL (     344 calls)
     ffts         :      0.11s CPU      0.13s WALL (      54 calls)
     fftw         :    182.14s CPU    189.51s WALL (  240424 calls)
     interpolate  :      0.38s CPU      0.45s WALL (      28 calls)
 
     Parallel routines
     fft_scatt_xy :     28.73s CPU     29.77s WALL (  240822 calls)
     fft_scatt_yz :     71.79s CPU     75.76s WALL (  240822 calls)
 
     PWSCF        :   8m 4.01s CPU   8m37.88s WALL

 
   This run was terminated on:  20:46:47  29Mar2021            

=------------------------------------------------------------------------------=
   JOB DONE.
=------------------------------------------------------------------------------=
