
     Program PWSCF v.6.7MaX starts on 30Mar2021 at  0:20:53 

     This program is part of the open-source Quantum ESPRESSO suite
     for quantum simulation of materials; please cite
         "P. Giannozzi et al., J. Phys.:Condens. Matter 21 395502 (2009);
         "P. Giannozzi et al., J. Phys.:Condens. Matter 29 465901 (2017);
          URL http://www.quantum-espresso.org", 
     in publications or presentations arising from this work. More details at
     http://www.quantum-espresso.org/quote

     Parallel version (MPI), running on    48 processors

     MPI processes distributed on     1 nodes
     R & G space division:  proc/nbgrp/npool/nimage =      48
     Reading input from Crdimer0.3-0.0.scf.in

     Current dimensions of program PWSCF are:
     Max number of different atomic species (ntypx) = 10
     Max number of k-points (npk) =  40000
     Max angular momentum in pseudopotentials (lmaxx) =  3
     file N.pbe-n-kjpaw_psl.1.0.0.UPF: wavefunction(s)  2S renormalized
     file Cr.pbe-spn-kjpaw_psl.1.0.0.UPF: wavefunction(s)  3S 3P 3D renormalized
     file Cr.pbe-spn-kjpaw_psl.1.0.0.UPF: wavefunction(s)  3S 3P 3D renormalized

     --------------------------------------------
     Parameters for DFT-D3 Dispersion Correction:
     --------------------------------------------
       Reference C6 values for interpolation: 

         atom   Coordination number   C6
         B          0.000           214.36
         B          0.971           150.74
         B          1.944           106.23
         B          2.913            62.89
         B          4.586            56.06
         N          0.000            50.54
         N          0.994            44.25
         N          2.014            39.35
         N          2.990            31.16
         Cr1        0.000          1381.48
         Cr1        1.827           571.38
         Cr1       10.619           306.69
         Cr2        0.000          1381.48
         Cr2        1.827           571.38
         Cr2       10.619           306.69

       Values used:

         atom   Coordination number  R0_AB[au]  C6      C8
         B          3.339            3.039     62.89   2505.91
         B          3.339            3.039     62.89   2505.91
         B          3.337            3.039     62.89   2505.96
         B          3.347            3.039     62.88   2505.71
         B          3.337            3.039     62.89   2505.97
         B          3.337            3.039     62.89   2505.97
         N          3.135            2.478     31.22    688.69
         N          3.134            2.478     31.22    688.70
         N          3.139            2.478     31.22    688.65
         N          3.151            2.478     31.21    688.55
         N          3.134            2.478     31.22    688.70
         N          3.134            2.478     31.22    688.70
         N          3.135            2.478     31.22    688.69
         N          3.138            2.478     31.22    688.66
         N          3.135            2.478     31.22    688.69
         B          3.335            3.039     62.89   2506.01
         B          3.339            3.039     62.89   2505.91
         B          3.337            3.039     62.89   2505.97
         B          3.337            3.039     62.89   2505.97
         B          3.339            3.039     62.89   2505.91
         B          3.335            3.039     62.89   2506.01
         N          3.135            2.478     31.22    688.69
         B          3.335            3.039     62.89   2506.01
         B          3.335            3.039     62.89   2506.01
         B          3.377            3.039     62.86   2504.84
         N          3.134            2.478     31.22    688.70
         N          3.134            2.478     31.22    688.70
         N          3.143            2.478     31.21    688.62
         N          3.143            2.478     31.21    688.62
         N          3.139            2.478     31.22    688.65
         N          3.151            2.478     31.21    688.55
         B          3.377            3.039     62.86   2504.84
         Cr1        0.115            3.252   1381.48 127494.61
         Cr2        0.115            3.252   1381.48 127494.61

         Molecular C6 ( Ry / a.u.^6 ) =     79164.32


     Subspace diagonalization in iterative solution of the eigenvalue problem:
     one sub-group per band group will be used
     scalapack distributed-memory algorithm (size of sub-group:  6*  6 procs)

 
     Parallelization info
     --------------------
     sticks:   dense  smooth     PW     G-vecs:    dense   smooth      PW
     Min         235      98     26                36277     9874    1408
     Max         236      99     27                36282     9883    1425
     Sum       11311    4741   1285              1741401   474235   68095
 


     bravais-lattice index     =            4
     lattice parameter (alat)  =      18.9275  a.u.
     unit-cell volume          =   10553.3021 (a.u.)^3
     number of atoms/cell      =           34
     number of atomic types    =            4
     number of electrons       =       156.00
     number of Kohn-Sham states=           94
     kinetic-energy cutoff     =      48.0000  Ry
     charge density cutoff     =     457.0000  Ry
     scf convergence threshold =      1.0E-07
     mixing beta               =       0.5000
     number of iterations used =            8  plain     mixing
     Exchange-correlation= SLA  PW   PBX  PBC
                           (   1   4   3   4   0   0   0)

     celldm(1)=  18.927497  celldm(2)=   0.000000  celldm(3)=   1.797125
     celldm(4)=   0.000000  celldm(5)=   0.000000  celldm(6)=   0.000000

     crystal axes: (cart. coord. in units of alat)
               a(1) = (   1.000000   0.000000   0.000000 )  
               a(2) = (  -0.500000   0.866025   0.000000 )  
               a(3) = (   0.000000   0.000000   1.797125 )  

     reciprocal axes: (cart. coord. in units 2 pi/alat)
               b(1) = (  1.000000  0.577350  0.000000 )  
               b(2) = (  0.000000  1.154701  0.000000 )  
               b(3) = (  0.000000  0.000000  0.556444 )  


     PseudoPot. # 1 for B  read from file:
     /home/sf05/q-e-qe-6.7MaX-Release/pseudo/B.pbe-n-kjpaw_psl.1.0.0.UPF
     MD5 check sum: d9c678ba5d3b2fd7b74e61139c9288d8
     Pseudo is Projector augmented-wave + core cor, Zval =  3.0
     Generated using "atomic" code by A. Dal Corso  v.5.1.2
     Shape of augmentation charge: PSQ
     Using radial grid of 1059 points,  4 beta functions with: 
                l(1) =   0
                l(2) =   0
                l(3) =   1
                l(4) =   1
     Q(r) pseudized with 0 coefficients 


     PseudoPot. # 2 for N  read from file:
     /home/sf05/q-e-qe-6.7MaX-Release/pseudo/N.pbe-n-kjpaw_psl.1.0.0.UPF
     MD5 check sum: e0e4e94a9c4025c5b51bd7d8793849bd
     Pseudo is Projector augmented-wave + core cor, Zval =  5.0
     Generated using "atomic" code by A. Dal Corso  v.5.1.2
     Shape of augmentation charge: PSQ
     Using radial grid of 1085 points,  4 beta functions with: 
                l(1) =   0
                l(2) =   0
                l(3) =   1
                l(4) =   1
     Q(r) pseudized with 0 coefficients 


     PseudoPot. # 3 for Cr read from file:
     /home/sf05/q-e-qe-6.7MaX-Release/pseudo/Cr.pbe-spn-kjpaw_psl.1.0.0.UPF
     MD5 check sum: 198f1a2427a48552563eee314eba32ba
     Pseudo is Projector augmented-wave + core cor, Zval = 14.0
     Generated using &quot;atomic&quot; code by A. Dal Corso  v.6.3
     Shape of augmentation charge: PSQ
     Using radial grid of 1183 points,  6 beta functions with: 
                l(1) =   0
                l(2) =   0
                l(3) =   1
                l(4) =   1
                l(5) =   2
                l(6) =   2
     Q(r) pseudized with 0 coefficients 


     PseudoPot. # 4 for Cr read from file:
     /home/sf05/q-e-qe-6.7MaX-Release/pseudo/Cr.pbe-spn-kjpaw_psl.1.0.0.UPF
     MD5 check sum: 198f1a2427a48552563eee314eba32ba
     Pseudo is Projector augmented-wave + core cor, Zval = 14.0
     Generated using &quot;atomic&quot; code by A. Dal Corso  v.6.3
     Shape of augmentation charge: PSQ
     Using radial grid of 1183 points,  6 beta functions with: 
                l(1) =   0
                l(2) =   0
                l(3) =   1
                l(4) =   1
                l(5) =   2
                l(6) =   2
     Q(r) pseudized with 0 coefficients 


     atomic species   valence    mass     pseudopotential
        B              3.00    10.81100     B ( 1.00)
        N              5.00    14.00674     N ( 1.00)
        Cr1           14.00    51.99610     Cr( 1.00)
        Cr2           14.00    51.99610     Cr( 1.00)

     Starting magnetic structure 
     atomic species   magnetization
        B            0.000
        N            0.000
        Cr1          1.000
        Cr2          1.000

     No symmetry found



   Cartesian axes

     site n.     atom                  positions (alat units)
         1           B   tau(   1) = (  -0.1250000   0.2165064   0.8985623  )
         2           B   tau(   2) = (   0.3750000   0.6495191   0.8985623  )
         3           B   tau(   3) = (   0.2500000   0.0000000   0.8985623  )
         4           B   tau(   4) = (   0.7500000   0.0000000   0.8985623  )
         5           B   tau(   5) = (   0.1250000   0.2165064   0.8985623  )
         6           B   tau(   6) = (  -0.3750000   0.6495191   0.8985623  )
         7           N   tau(   7) = (   0.7500005   0.2886748   0.8985623  )
         8           N   tau(   8) = (   0.3750005   0.5051812   0.8985623  )
         9           N   tau(   9) = (   0.3750005   0.0721685   0.8985623  )
        10           N   tau(  10) = (   0.6250005   0.0721685   0.8985623  )
        11           N   tau(  11) = (   0.2500005   0.2886748   0.8985623  )
        12           N   tau(  12) = (   0.6250005   0.5051812   0.8985623  )
        13           N   tau(  13) = (   0.0000005   0.2886748   0.8985623  )
        14           N   tau(  14) = (   0.2500005   0.7216875   0.8985623  )
        15           N   tau(  15) = (  -0.2499995   0.7216875   0.8985623  )
        16           B   tau(  16) = (   0.0000000   0.4330127   0.8985623  )
        17           B   tau(  17) = (   0.1250000   0.6495191   0.8985623  )
        18           B   tau(  18) = (  -0.1250000   0.6495191   0.8985623  )
        19           B   tau(  19) = (   0.3750000   0.2165064   0.8985623  )
        20           B   tau(  20) = (   0.6250000   0.2165064   0.8985623  )
        21           B   tau(  21) = (   0.5000000   0.4330127   0.8985623  )
        22           N   tau(  22) = (   0.5000005   0.2886748   0.8985623  )
        23           B   tau(  23) = (  -0.2500000   0.4330127   0.8985623  )
        24           B   tau(  24) = (   0.2500000   0.4330127   0.8985623  )
        25           B   tau(  25) = (   0.5000000   0.0000000   0.8985623  )
        26           N   tau(  26) = (  -0.1249995   0.5051812   0.8985623  )
        27           N   tau(  27) = (   0.1250005   0.5051812   0.8985623  )
        28           N   tau(  28) = (   0.0000005   0.7216875   0.8985623  )
        29           N   tau(  29) = (   0.5000005   0.7216875   0.8985623  )
        30           N   tau(  30) = (   0.1250005   0.0721685   0.8985623  )
        31           N   tau(  31) = (   0.8750005   0.0721685   0.8985623  )
        32           B   tau(  32) = (   0.0000000   0.0000000   0.8985623  )
        33           Cr1 tau(  33) = (   0.5500000   0.0000000   1.2040735  )
        34           Cr2 tau(  34) = (  -0.0500000   0.0000000   1.2040735  )

     number of k points=    15  Gaussian smearing, width (Ry)=  0.0000
                       cart. coord. in units 2pi/alat
        k(    1) = (   0.1666667   0.2886751   0.0000000), wk =   0.0740741
        k(    2) = (   0.1666667  -0.4811252   0.0000000), wk =   0.0740741
        k(    3) = (   0.1666667  -0.0962250   0.0000000), wk =   0.0740741
        k(    4) = (  -0.5000000  -0.8660254   0.0000000), wk =   0.0370370
        k(    5) = (  -0.1666667   0.2886751   0.0000000), wk =   0.0740741
        k(    6) = (   0.3333333   0.0000000   0.0000000), wk =   0.0740741
        k(    7) = (  -0.1666667  -0.4811252   0.0000000), wk =   0.0740741
        k(    8) = (   0.5000000  -0.0962250   0.0000000), wk =   0.0740741
        k(    9) = (  -0.3333333  -0.3849002   0.0000000), wk =   0.0740741
        k(   10) = (   0.5000000   0.0962250   0.0000000), wk =   0.0740741
        k(   11) = (  -0.3333333   0.3849002   0.0000000), wk =   0.0740741
        k(   12) = (  -0.1666667  -0.0962250   0.0000000), wk =   0.0740741
        k(   13) = (  -0.0000000  -0.1924501   0.0000000), wk =   0.0740741
        k(   14) = (   0.5000000  -0.8660254   0.0000000), wk =   0.0370370
        k(   15) = (  -1.0000000   0.0000000   0.0000000), wk =   0.0370370

     Dense  grid:  1741401 G-vectors     FFT dimensions: ( 135, 135, 240)

     Smooth grid:   474235 G-vectors     FFT dimensions: (  90,  90, 160)

     Estimated max dynamical RAM per process >     218.62 MB

     Estimated total dynamical RAM >      10.25 GB
     Generating pointlists ...
     new r_m :   0.0595 (alat units)  1.1269 (a.u.) for type    1
     new r_m :   0.0595 (alat units)  1.1269 (a.u.) for type    2
     new r_m :   0.1277 (alat units)  2.4170 (a.u.) for type    3
     new r_m :   0.1277 (alat units)  2.4170 (a.u.) for type    4

     Initial potential from superposition of free atoms

     starting charge  155.99382, renormalised to  156.00000

     negative rho (up, down):  6.557E-03 4.655E-04
     Starting wfcs are  148 randomized atomic wfcs
     Checking if some PAW data can be deallocated... 

     total cpu time spent up to now is       20.6 secs

     Self-consistent Calculation

     iteration #  1     ecut=    48.00 Ry     beta= 0.50
     Davidson diagonalization with overlap
     ethr =  1.00E-02,  avg # of iterations =  2.9

     negative rho (up, down):  4.731E-03 2.935E-03

     total cpu time spent up to now is       64.2 secs

     total energy              =   -1130.76660699 Ry
     estimated scf accuracy    <      11.37361947 Ry

     total magnetization       =    12.00 Bohr mag/cell
     absolute magnetization    =    12.15 Bohr mag/cell

     iteration #  2     ecut=    48.00 Ry     beta= 0.50
     Davidson diagonalization with overlap
     ethr =  7.29E-03,  avg # of iterations =  2.8

     negative rho (up, down):  6.946E-03 9.338E-03

     total cpu time spent up to now is      105.0 secs

     total energy              =   -1133.13536281 Ry
     estimated scf accuracy    <       3.08084129 Ry

     total magnetization       =    11.85 Bohr mag/cell
     absolute magnetization    =    11.86 Bohr mag/cell

     iteration #  3     ecut=    48.00 Ry     beta= 0.50
     Davidson diagonalization with overlap
     ethr =  1.97E-03,  avg # of iterations =  6.7

     negative rho (up, down):  3.565E-03 5.610E-03

     total cpu time spent up to now is      145.4 secs

     total energy              =   -1133.64418862 Ry
     estimated scf accuracy    <       0.60450693 Ry

     total magnetization       =    12.00 Bohr mag/cell
     absolute magnetization    =    12.05 Bohr mag/cell

     iteration #  4     ecut=    48.00 Ry     beta= 0.50
     Davidson diagonalization with overlap
     ethr =  3.88E-04,  avg # of iterations =  7.1

     negative rho (up, down):  6.970E-03 1.403E-02

     total cpu time spent up to now is      186.3 secs

     total energy              =   -1133.79391978 Ry
     estimated scf accuracy    <       0.28269958 Ry

     total magnetization       =    12.00 Bohr mag/cell
     absolute magnetization    =    12.00 Bohr mag/cell

     iteration #  5     ecut=    48.00 Ry     beta= 0.50
     Davidson diagonalization with overlap
     ethr =  1.81E-04,  avg # of iterations =  8.6

     negative rho (up, down):  4.471E-03 9.673E-03

     total cpu time spent up to now is      228.8 secs

     total energy              =   -1133.81087746 Ry
     estimated scf accuracy    <       0.01715458 Ry

     total magnetization       =    12.00 Bohr mag/cell
     absolute magnetization    =    12.00 Bohr mag/cell

     iteration #  6     ecut=    48.00 Ry     beta= 0.50
     Davidson diagonalization with overlap
     c_bands:  1 eigenvalues not converged
     c_bands:  1 eigenvalues not converged
     c_bands:  2 eigenvalues not converged
     c_bands:  3 eigenvalues not converged
     ethr =  1.10E-05,  avg # of iterations = 14.7

     negative rho (up, down):  3.346E-03 7.683E-03

     total cpu time spent up to now is      293.6 secs

     total energy              =   -1133.81405899 Ry
     estimated scf accuracy    <       0.00515503 Ry

     total magnetization       =    12.00 Bohr mag/cell
     absolute magnetization    =    12.01 Bohr mag/cell

     iteration #  7     ecut=    48.00 Ry     beta= 0.50
     Davidson diagonalization with overlap
     ethr =  3.30E-06,  avg # of iterations =  8.4

     negative rho (up, down):  3.020E-03 7.457E-03

     total cpu time spent up to now is      339.6 secs

     total energy              =   -1133.81521102 Ry
     estimated scf accuracy    <       0.00045334 Ry

     total magnetization       =    12.00 Bohr mag/cell
     absolute magnetization    =    12.01 Bohr mag/cell

     iteration #  8     ecut=    48.00 Ry     beta= 0.50
     Davidson diagonalization with overlap
     ethr =  2.91E-07,  avg # of iterations =  5.3

     negative rho (up, down):  2.892E-03 7.302E-03

     total cpu time spent up to now is      379.3 secs

     total energy              =   -1133.81537615 Ry
     estimated scf accuracy    <       0.00006576 Ry

     total magnetization       =    12.00 Bohr mag/cell
     absolute magnetization    =    12.00 Bohr mag/cell

     iteration #  9     ecut=    48.00 Ry     beta= 0.50
     Davidson diagonalization with overlap
     ethr =  4.22E-08,  avg # of iterations =  2.7

     negative rho (up, down):  2.858E-03 7.277E-03

     total cpu time spent up to now is      420.1 secs

     total energy              =   -1133.81545427 Ry
     estimated scf accuracy    <       0.00000785 Ry

     total magnetization       =    12.00 Bohr mag/cell
     absolute magnetization    =    12.00 Bohr mag/cell

     iteration # 10     ecut=    48.00 Ry     beta= 0.50
     Davidson diagonalization with overlap
     ethr =  5.03E-09,  avg # of iterations =  3.6

     negative rho (up, down):  2.847E-03 7.276E-03

     total cpu time spent up to now is      456.8 secs

     total energy              =   -1133.81548365 Ry
     estimated scf accuracy    <       0.00000205 Ry

     total magnetization       =    12.00 Bohr mag/cell
     absolute magnetization    =    12.00 Bohr mag/cell

     iteration # 11     ecut=    48.00 Ry     beta= 0.50
     Davidson diagonalization with overlap
     ethr =  1.31E-09,  avg # of iterations =  2.8

     negative rho (up, down):  2.844E-03 7.279E-03

     total cpu time spent up to now is      498.0 secs

     total energy              =   -1133.81548920 Ry
     estimated scf accuracy    <       0.00000028 Ry

     total magnetization       =    12.00 Bohr mag/cell
     absolute magnetization    =    12.00 Bohr mag/cell

     iteration # 12     ecut=    48.00 Ry     beta= 0.50
     Davidson diagonalization with overlap
     ethr =  1.77E-10,  avg # of iterations =  4.3

     negative rho (up, down):  2.842E-03 7.283E-03
 
     Magnetic moment per site:
     atom:    1    charge:    0.8804    magn:    0.0008    constr:    0.0000
     atom:    2    charge:    0.8804    magn:    0.0004    constr:    0.0000
     atom:    3    charge:    0.8802    magn:    0.0006    constr:    0.0000
     atom:    4    charge:    0.8804    magn:    0.0008    constr:    0.0000
     atom:    5    charge:    0.8803    magn:    0.0003    constr:    0.0000
     atom:    6    charge:    0.8803    magn:    0.0006    constr:    0.0000
     atom:    7    charge:    2.8609    magn:    0.0008    constr:    0.0000
     atom:    8    charge:    2.8609    magn:    0.0004    constr:    0.0000
     atom:    9    charge:    2.8607    magn:    0.0055    constr:    0.0000
     atom:   10    charge:    2.8607    magn:    0.0106    constr:    0.0000
     atom:   11    charge:    2.8610    magn:    0.0002    constr:    0.0000
     atom:   12    charge:    2.8609    magn:    0.0003    constr:    0.0000
     atom:   13    charge:    2.8599    magn:    0.0010    constr:    0.0000
     atom:   14    charge:    2.8597    magn:    0.0049    constr:    0.0000
     atom:   15    charge:    2.8598    magn:    0.0012    constr:    0.0000
     atom:   16    charge:    0.8800    magn:    0.0002    constr:    0.0000
     atom:   17    charge:    0.8801    magn:    0.0004    constr:    0.0000
     atom:   18    charge:    0.8800    magn:    0.0006    constr:    0.0000
     atom:   19    charge:    0.8797    magn:    0.0003    constr:    0.0000
     atom:   20    charge:    0.8799    magn:    0.0008    constr:    0.0000
     atom:   21    charge:    0.8798    magn:    0.0002    constr:    0.0000
     atom:   22    charge:    2.8611    magn:    0.0010    constr:    0.0000
     atom:   23    charge:    0.8799    magn:    0.0001    constr:    0.0000
     atom:   24    charge:    0.8799    magn:    0.0000    constr:    0.0000
     atom:   25    charge:    0.8807    magn:    0.0003    constr:    0.0000
     atom:   26    charge:    2.8598    magn:    0.0003    constr:    0.0000
     atom:   27    charge:    2.8598    magn:    0.0004    constr:    0.0000
     atom:   28    charge:    2.8594    magn:    0.0072    constr:    0.0000
     atom:   29    charge:    2.8593    magn:    0.0072    constr:    0.0000
     atom:   30    charge:    2.8593    magn:    0.0055    constr:    0.0000
     atom:   31    charge:    2.8593    magn:    0.0107    constr:    0.0000
     atom:   32    charge:    0.8810    magn:    0.0003    constr:    0.0000
     atom:   33    charge:   12.7868    magn:    4.7794    constr:    0.0000
     atom:   34    charge:   12.7868    magn:    4.7794    constr:    0.0000

     total cpu time spent up to now is      538.9 secs

     End of self-consistent calculation

 ------ SPIN UP ------------


          k = 0.1667 0.2887 0.0000 ( 59267 PWs)   bands (ev):

   -72.5115 -72.5110 -43.9766 -43.9754 -43.9683 -43.9678 -43.9660 -43.9654
   -21.2638 -20.6864 -20.6632 -20.1216 -20.1125 -19.6135 -19.5902 -19.1166
   -18.7222 -18.7003 -18.4746 -18.4666 -18.2125 -18.1058 -18.0898 -17.8661
   -12.5004 -12.2245 -12.2166 -11.8400 -11.8308 -11.6742 -11.2147 -11.1987
   -10.4082 -10.3840 -10.1389 -10.1262  -9.6082  -9.6015  -8.8554  -8.8433
    -8.8385  -8.7903  -8.7698  -8.6128  -8.2133  -8.0753  -8.0290  -7.8452
    -7.8429  -7.4573  -7.4513  -7.3105  -7.2652  -7.2279  -7.2186  -6.9776
    -6.9704  -6.5927  -6.5472  -6.1711  -6.1677  -5.8901  -5.4348  -5.3191
    -5.2854  -5.2163  -4.9348  -4.9128  -4.5261  -4.3771  -4.3528  -3.9961
    -2.5211  -1.5606  -1.5092  -1.4930  -1.4794  -1.4132  -1.3885  -1.3867
    -1.3650  -1.3405  -1.3233  -1.1909   0.5846   0.7486   0.9730   1.1857
     1.2416   1.4409   1.4859   1.5530   1.5839   1.6859

          k = 0.1667-0.4811 0.0000 ( 59291 PWs)   bands (ev):

   -72.5115 -72.5110 -43.9766 -43.9754 -43.9683 -43.9678 -43.9660 -43.9654
   -21.1335 -20.9297 -20.7384 -20.1771 -19.8212 -19.4835 -19.3347 -19.1904
   -19.0319 -18.7950 -18.6570 -18.5613 -18.1657 -18.1069 -17.9378 -17.7404
   -12.3645 -12.1299 -12.0603 -11.9233 -11.7003 -11.6706 -11.5690 -10.9583
   -10.9061 -10.6398 -10.5395  -9.8764  -9.7096  -9.3525  -9.1272  -8.6870
    -8.6392  -8.5693  -8.4059  -8.3860  -8.1775  -8.1405  -8.0826  -8.0628
    -7.7040  -7.6393  -7.5116  -7.4888  -7.3737  -7.1873  -7.0841  -6.8786
    -6.6383  -6.4077  -6.1962  -6.1740  -5.9892  -5.9452  -5.7997  -5.7635
    -5.4677  -5.4155  -5.2246  -5.0595  -4.4620  -4.3665  -4.1053  -3.7838
    -2.5148  -1.5660  -1.5079  -1.4929  -1.4769  -1.4108  -1.3914  -1.3873
    -1.3664  -1.3402  -1.3231  -1.1917   0.5731   0.6220   1.0235   1.0542
     1.1744   1.2657   1.3926   1.7733   1.8625   1.9145

          k = 0.1667-0.0962 0.0000 ( 59226 PWs)   bands (ev):

   -72.5115 -72.5109 -43.9766 -43.9754 -43.9682 -43.9678 -43.9660 -43.9654
   -21.3303 -20.5525 -20.3622 -20.3557 -20.0074 -19.9948 -19.8221 -18.7488
   -18.7369 -18.3941 -18.3871 -18.3710 -18.2854 -18.2749 -18.0937 -18.0877
   -12.5254 -12.5170 -12.4244 -11.5980 -11.5917 -11.4438 -11.4351 -10.9425
   -10.9398  -9.9463  -9.9420  -9.6921  -9.3909  -9.3891  -9.2469  -9.2439
    -9.0584  -9.0566  -8.9420  -8.3406  -8.3371  -7.9175  -7.9153  -7.9002
    -7.8615  -7.7866  -7.6228  -7.6062  -7.1490  -7.1120  -6.9754  -6.9050
    -6.9003  -6.8679  -6.5480  -6.5437  -6.2736  -5.3660  -5.3373  -5.1594
    -5.0814  -4.8266  -4.8201  -4.7672  -4.6308  -4.6225  -4.3669  -4.3514
    -2.5276  -1.5552  -1.5104  -1.4933  -1.4817  -1.4169  -1.3879  -1.3844
    -1.3632  -1.3408  -1.3236  -1.1900   0.5986   0.8814   0.9329   1.1889
     1.2517   1.3207   1.5076   1.5569   1.5919   1.6827

          k =-0.5000-0.8660 0.0000 ( 59292 PWs)   bands (ev):

   -72.5115 -72.5110 -43.9766 -43.9754 -43.9683 -43.9678 -43.9660 -43.9654
   -21.0779 -21.0520 -20.4872 -20.4797 -19.4473 -19.4348 -19.4302 -19.4244
   -19.0172 -18.9970 -18.3524 -18.3497 -18.3271 -18.3136 -17.8115 -17.8039
   -12.0973 -12.0906 -12.0731 -12.0644 -11.8963 -11.8869 -11.3523 -11.3368
   -10.2547 -10.2471 -10.1527 -10.1472 -10.1453 -10.1411  -8.6142  -8.5761
    -8.5702  -8.5551  -8.5527  -8.5474  -7.8840  -7.8797  -7.8754  -7.8735
    -7.8377  -7.8342  -7.7946  -7.7773  -7.5146  -7.4939  -6.6299  -6.6216
    -6.3835  -6.3444  -6.3274  -6.3072  -6.2123  -6.1975  -5.7352  -5.7074
    -5.5696  -5.5501  -4.7541  -4.7505  -4.7051  -4.6962  -3.9038  -3.8855
    -2.4596  -1.6589  -1.5025  -1.4867  -1.4724  -1.4134  -1.3878  -1.3828
    -1.3795  -1.3482  -1.3331  -1.2862   0.8765   0.9668   1.0830   1.2100
     1.2400   1.3380   1.4738   1.5828   1.6348   1.6522

          k =-0.1667 0.2887 0.0000 ( 59267 PWs)   bands (ev):

   -72.5115 -72.5110 -43.9766 -43.9754 -43.9683 -43.9678 -43.9660 -43.9654
   -21.2638 -20.6864 -20.6632 -20.1216 -20.1125 -19.6135 -19.5901 -19.1166
   -18.7223 -18.7002 -18.4746 -18.4666 -18.2125 -18.1059 -18.0898 -17.8661
   -12.5004 -12.2245 -12.2166 -11.8400 -11.8308 -11.6742 -11.2147 -11.1986
   -10.4083 -10.3840 -10.1389 -10.1262  -9.6082  -9.6014  -8.8554  -8.8433
    -8.8385  -8.7903  -8.7698  -8.6128  -8.2133  -8.0754  -8.0290  -7.8452
    -7.8429  -7.4573  -7.4513  -7.3105  -7.2652  -7.2279  -7.2185  -6.9776
    -6.9704  -6.5927  -6.5471  -6.1711  -6.1676  -5.8901  -5.4349  -5.3192
    -5.2854  -5.2163  -4.9348  -4.9127  -4.5262  -4.3772  -4.3528  -3.9961
    -2.5211  -1.5606  -1.5092  -1.4930  -1.4794  -1.4132  -1.3884  -1.3867
    -1.3650  -1.3405  -1.3233  -1.1909   0.5846   0.7486   0.9730   1.1857
     1.2416   1.4409   1.4859   1.5530   1.5839   1.6859

          k = 0.3333 0.0000 0.0000 ( 59267 PWs)   bands (ev):

   -72.5115 -72.5110 -43.9766 -43.9754 -43.9683 -43.9678 -43.9660 -43.9654
   -21.2635 -20.7009 -20.6486 -20.1219 -20.1111 -19.6282 -19.5769 -19.1180
   -18.7309 -18.6879 -18.4765 -18.4661 -18.2095 -18.1206 -18.0796 -17.8655
   -12.5001 -12.2253 -12.2157 -11.8446 -11.8279 -11.6728 -11.2247 -11.1889
   -10.4076 -10.3839 -10.1464 -10.1191  -9.6117  -9.5970  -8.8626  -8.8403
    -8.8319  -8.8026  -8.7588  -8.6133  -8.2145  -8.1196  -7.9839  -7.8446
    -7.8421  -7.4612  -7.4466  -7.3122  -7.2603  -7.2332  -7.2133  -6.9790
    -6.9700  -6.6339  -6.5118  -6.1727  -6.1655  -5.8947  -5.4346  -5.3293
    -5.2679  -5.2165  -4.9358  -4.9137  -4.5195  -4.3946  -4.3439  -3.9956
    -2.4867  -1.6166  -1.5049  -1.4890  -1.4764  -1.4166  -1.3864  -1.3837
    -1.3726  -1.3456  -1.3299  -1.2619   0.8987   0.9168   1.0337   1.2146
     1.2963   1.3654   1.4181   1.5118   1.5540   1.6068

          k =-0.1667-0.4811 0.0000 ( 59291 PWs)   bands (ev):

   -72.5115 -72.5110 -43.9766 -43.9754 -43.9683 -43.9678 -43.9660 -43.9654
   -21.1335 -20.9297 -20.7384 -20.1771 -19.8212 -19.4835 -19.3347 -19.1904
   -19.0319 -18.7950 -18.6570 -18.5613 -18.1657 -18.1069 -17.9378 -17.7404
   -12.3645 -12.1299 -12.0603 -11.9232 -11.7003 -11.6707 -11.5691 -10.9583
   -10.9061 -10.6398 -10.5395  -9.8763  -9.7096  -9.3525  -9.1273  -8.6870
    -8.6392  -8.5693  -8.4058  -8.3860  -8.1774  -8.1406  -8.0826  -8.0629
    -7.7040  -7.6394  -7.5116  -7.4887  -7.3737  -7.1872  -7.0841  -6.8786
    -6.6384  -6.4077  -6.1962  -6.1740  -5.9892  -5.9451  -5.7996  -5.7635
    -5.4677  -5.4155  -5.2246  -5.0595  -4.4620  -4.3665  -4.1053  -3.7838
    -2.5148  -1.5660  -1.5079  -1.4929  -1.4769  -1.4108  -1.3914  -1.3873
    -1.3664  -1.3402  -1.3231  -1.1917   0.5731   0.6220   1.0235   1.0542
     1.1744   1.2657   1.3927   1.7732   1.8623   1.9149

          k = 0.5000-0.0962 0.0000 ( 59291 PWs)   bands (ev):

   -72.5115 -72.5110 -43.9766 -43.9754 -43.9683 -43.9678 -43.9660 -43.9654
   -21.1315 -20.9353 -20.7348 -20.1757 -19.8213 -19.4851 -19.3388 -19.1867
   -19.0328 -18.7957 -18.6495 -18.5657 -18.1578 -18.1181 -17.9357 -17.7402
   -12.3636 -12.1302 -12.0590 -11.9261 -11.7078 -11.6615 -11.5706 -10.9587
   -10.9043 -10.6385 -10.5413  -9.8747  -9.7101  -9.3532  -9.1268  -8.6775
    -8.6397  -8.5674  -8.4175  -8.4063  -8.1757  -8.1213  -8.0911  -8.0555
    -7.7012  -7.6397  -7.5112  -7.4894  -7.3687  -7.1884  -7.0847  -6.8788
    -6.6387  -6.4138  -6.2124  -6.1736  -5.9749  -5.9447  -5.7991  -5.7664
    -5.4684  -5.4141  -5.2060  -5.0721  -4.4454  -4.3876  -4.1024  -3.7838
    -2.4597  -1.6588  -1.5024  -1.4867  -1.4724  -1.4145  -1.3877  -1.3826
    -1.3795  -1.3482  -1.3331  -1.2862   0.8444   0.9588   1.1043   1.1299
     1.2525   1.2863   1.4150   1.4915   1.6576   1.8046

          k =-0.3333-0.3849 0.0000 ( 59291 PWs)   bands (ev):

   -72.5115 -72.5110 -43.9766 -43.9754 -43.9683 -43.9678 -43.9660 -43.9654
   -21.1322 -20.9333 -20.7362 -20.1756 -19.8227 -19.4836 -19.3352 -19.1894
   -19.0347 -18.7944 -18.6506 -18.5651 -18.1592 -18.1162 -17.9358 -17.7403
   -12.3641 -12.1287 -12.0607 -11.9253 -11.7003 -11.6698 -11.5701 -10.9586
   -10.9042 -10.6380 -10.5419  -9.8752  -9.7101  -9.3529  -9.1274  -8.6804
    -8.6387  -8.5693  -8.4091  -8.4023  -8.1769  -8.1283  -8.0835  -8.0639
    -7.7014  -7.6387  -7.5155  -7.4855  -7.3679  -7.1885  -7.0851  -6.8847
    -6.6371  -6.4077  -6.1991  -6.1752  -5.9854  -5.9441  -5.7992  -5.7738
    -5.4684  -5.4099  -5.2059  -5.0727  -4.4469  -4.3864  -4.1018  -3.7838
    -2.4795  -1.6232  -1.5045  -1.4888  -1.4744  -1.4128  -1.3889  -1.3848
    -1.3743  -1.3455  -1.3294  -1.2623   0.7478   0.8789   1.0629   1.0860
     1.2046   1.2872   1.3728   1.5466   1.7590   1.8524

          k = 0.5000 0.0962 0.0000 ( 59291 PWs)   bands (ev):

   -72.5115 -72.5110 -43.9766 -43.9754 -43.9683 -43.9678 -43.9660 -43.9654
   -21.1315 -20.9353 -20.7349 -20.1757 -19.8213 -19.4851 -19.3388 -19.1867
   -19.0328 -18.7957 -18.6495 -18.5657 -18.1578 -18.1180 -17.9357 -17.7402
   -12.3636 -12.1302 -12.0590 -11.9261 -11.7078 -11.6615 -11.5706 -10.9587
   -10.9043 -10.6385 -10.5413  -9.8748  -9.7101  -9.3532  -9.1268  -8.6775
    -8.6397  -8.5674  -8.4175  -8.4063  -8.1757  -8.1213  -8.0911  -8.0555
    -7.7013  -7.6396  -7.5112  -7.4894  -7.3687  -7.1885  -7.0847  -6.8788
    -6.6386  -6.4138  -6.2124  -6.1735  -5.9750  -5.9447  -5.7992  -5.7664
    -5.4685  -5.4141  -5.2060  -5.0720  -4.4454  -4.3875  -4.1024  -3.7838
    -2.4597  -1.6588  -1.5024  -1.4867  -1.4724  -1.4145  -1.3878  -1.3826
    -1.3795  -1.3482  -1.3331  -1.2862   0.8444   0.9588   1.1043   1.1299
     1.2525   1.2862   1.4150   1.4916   1.6576   1.8056

          k =-0.3333 0.3849 0.0000 ( 59291 PWs)   bands (ev):

   -72.5115 -72.5110 -43.9766 -43.9754 -43.9683 -43.9678 -43.9660 -43.9654
   -21.1322 -20.9333 -20.7362 -20.1756 -19.8227 -19.4836 -19.3352 -19.1894
   -19.0347 -18.7944 -18.6506 -18.5651 -18.1592 -18.1162 -17.9358 -17.7403
   -12.3641 -12.1287 -12.0607 -11.9253 -11.7003 -11.6698 -11.5700 -10.9586
   -10.9042 -10.6380 -10.5419  -9.8752  -9.7101  -9.3529  -9.1274  -8.6804
    -8.6387  -8.5693  -8.4092  -8.4023  -8.1769  -8.1283  -8.0835  -8.0638
    -7.7014  -7.6386  -7.5155  -7.4854  -7.3679  -7.1884  -7.0852  -6.8847
    -6.6371  -6.4077  -6.1991  -6.1753  -5.9853  -5.9442  -5.7992  -5.7738
    -5.4683  -5.4099  -5.2059  -5.0727  -4.4469  -4.3864  -4.1018  -3.7838
    -2.4795  -1.6232  -1.5045  -1.4888  -1.4744  -1.4128  -1.3889  -1.3849
    -1.3743  -1.3455  -1.3294  -1.2623   0.7478   0.8789   1.0629   1.0861
     1.2046   1.2872   1.3729   1.5466   1.7590   1.8524

          k =-0.1667-0.0962 0.0000 ( 59226 PWs)   bands (ev):

   -72.5115 -72.5109 -43.9766 -43.9754 -43.9683 -43.9678 -43.9660 -43.9654
   -21.3303 -20.5525 -20.3622 -20.3557 -20.0074 -19.9948 -19.8221 -18.7488
   -18.7369 -18.3942 -18.3871 -18.3710 -18.2853 -18.2749 -18.0937 -18.0877
   -12.5254 -12.5170 -12.4244 -11.5980 -11.5916 -11.4438 -11.4351 -10.9425
   -10.9398  -9.9463  -9.9420  -9.6920  -9.3909  -9.3891  -9.2469  -9.2439
    -9.0584  -9.0566  -8.9420  -8.3407  -8.3371  -7.9175  -7.9152  -7.9002
    -7.8614  -7.7866  -7.6228  -7.6062  -7.1490  -7.1120  -6.9754  -6.9050
    -6.9003  -6.8679  -6.5479  -6.5436  -6.2737  -5.3660  -5.3373  -5.1593
    -5.0815  -4.8266  -4.8201  -4.7672  -4.6308  -4.6225  -4.3669  -4.3514
    -2.5276  -1.5552  -1.5104  -1.4933  -1.4817  -1.4169  -1.3879  -1.3844
    -1.3632  -1.3408  -1.3236  -1.1900   0.5986   0.8814   0.9329   1.1888
     1.2517   1.3208   1.5076   1.5569   1.5919   1.6826

          k =-0.0000-0.1925 0.0000 ( 59226 PWs)   bands (ev):

   -72.5115 -72.5109 -43.9766 -43.9754 -43.9683 -43.9678 -43.9660 -43.9654
   -21.3303 -20.5488 -20.3704 -20.3541 -20.0040 -19.9928 -19.8246 -18.7481
   -18.7350 -18.4076 -18.3898 -18.3693 -18.2724 -18.2722 -18.0982 -18.0870
   -12.5263 -12.5164 -12.4242 -11.6002 -11.5905 -11.4431 -11.4338 -10.9446
   -10.9390  -9.9445  -9.9438  -9.6923  -9.3913  -9.3878  -9.2460  -9.2452
    -9.0587  -9.0564  -8.9428  -8.3392  -8.3380  -7.9166  -7.9150  -7.8820
    -7.8605  -7.7878  -7.6679  -7.5922  -7.1403  -7.0971  -6.9744  -6.9054
    -6.9011  -6.8794  -6.5484  -6.5426  -6.2741  -5.3714  -5.3239  -5.1596
    -5.0813  -4.8464  -4.8301  -4.7695  -4.6123  -4.6086  -4.3807  -4.3455
    -2.5429  -1.5346  -1.5126  -1.4952  -1.4828  -1.4153  -1.3889  -1.3858
    -1.3602  -1.3384  -1.3205  -1.1405   0.4505   0.8020   0.9062   1.1613
     1.2403   1.3639   1.4956   1.5959   1.6443   1.7069

          k = 0.5000-0.8660 0.0000 ( 59292 PWs)   bands (ev):

   -72.5115 -72.5110 -43.9766 -43.9754 -43.9683 -43.9678 -43.9660 -43.9654
   -21.0779 -21.0519 -20.4872 -20.4797 -19.4473 -19.4347 -19.4302 -19.4244
   -19.0172 -18.9969 -18.3526 -18.3497 -18.3270 -18.3136 -17.8114 -17.8039
   -12.0975 -12.0906 -12.0730 -12.0644 -11.8963 -11.8869 -11.3524 -11.3367
   -10.2547 -10.2471 -10.1527 -10.1472 -10.1453 -10.1411  -8.6142  -8.5761
    -8.5703  -8.5550  -8.5526  -8.5474  -7.8840  -7.8797  -7.8754  -7.8736
    -7.8378  -7.8342  -7.7946  -7.7773  -7.5147  -7.4939  -6.6298  -6.6215
    -6.3835  -6.3444  -6.3274  -6.3072  -6.2123  -6.1973  -5.7353  -5.7074
    -5.5697  -5.5501  -4.7542  -4.7505  -4.7050  -4.6962  -3.9038  -3.8855
    -2.4596  -1.6589  -1.5025  -1.4867  -1.4724  -1.4134  -1.3879  -1.3828
    -1.3795  -1.3482  -1.3331  -1.2862   0.8765   0.9668   1.0830   1.2099
     1.2400   1.3380   1.4738   1.5828   1.6349   1.6520

          k =-1.0000 0.0000 0.0000 ( 59292 PWs)   bands (ev):

   -72.5115 -72.5110 -43.9766 -43.9754 -43.9683 -43.9678 -43.9660 -43.9654
   -21.0907 -21.0371 -20.4927 -20.4776 -19.4412 -19.4376 -19.4364 -19.4173
   -19.0280 -18.9873 -18.3841 -18.3521 -18.3089 -18.2982 -17.8139 -17.8027
   -12.1177 -12.0961 -12.0568 -12.0522 -11.8968 -11.8868 -11.3644 -11.3260
   -10.2567 -10.2562 -10.1487 -10.1476 -10.1407 -10.1395  -8.6512  -8.5890
    -8.5735  -8.5442  -8.5343  -8.5096  -7.8910  -7.8842  -7.8775  -7.8755
    -7.8412  -7.8296  -7.8143  -7.7609  -7.5274  -7.4826  -6.6284  -6.6211
    -6.3894  -6.3323  -6.3311  -6.2912  -6.2226  -6.1897  -5.7545  -5.6964
    -5.5810  -5.5390  -4.8026  -4.7758  -4.6675  -4.6623  -3.9094  -3.8816
    -2.5307  -1.5442  -1.5093  -1.4948  -1.4777  -1.4095  -1.3929  -1.3883
    -1.3630  -1.3376  -1.3201  -1.1427   0.4454   0.5517   1.0369   1.0638
     1.1235   1.5188   1.5803   1.5861   1.6232   1.9431

 ------ SPIN DOWN ----------


          k = 0.1667 0.2887 0.0000 ( 59267 PWs)   bands (ev):

   -68.1429 -68.1423 -39.6491 -39.6481 -39.6340 -39.6329 -39.6279 -39.6273
   -21.2562 -20.6780 -20.6571 -20.1134 -20.1060 -19.6051 -19.5842 -19.1090
   -18.7124 -18.6935 -18.4664 -18.4600 -18.2032 -18.0987 -18.0841 -17.8585
   -12.4954 -12.2185 -12.2122 -11.8351 -11.8267 -11.6700 -11.2091 -11.1941
   -10.4027 -10.3788 -10.1329 -10.1215  -9.6028  -9.5968  -8.8378  -8.8334
    -8.8259  -8.7849  -8.7659  -8.6081  -8.2088  -8.0454  -8.0084  -7.8403
    -7.8386  -7.4509  -7.4457  -7.2780  -7.2496  -7.2229  -7.2144  -6.9725
    -6.9664  -6.5658  -6.5297  -6.1661  -6.1630  -5.8663  -5.4292  -5.2890
    -5.2649  -5.2113  -4.9100  -4.8960  -4.4998  -4.3565  -4.3375  -3.9759
    -0.3796   0.7138   1.0323   1.1948   1.3542   1.3801   1.4416   1.5303
     1.5597   1.7897   1.9352   2.0918   2.1559   2.2227   2.2733   2.3357
     2.4218   2.4378   2.4821   2.5847   2.5945   2.6264

          k = 0.1667-0.4811 0.0000 ( 59291 PWs)   bands (ev):

   -68.1429 -68.1423 -39.6491 -39.6481 -39.6340 -39.6330 -39.6279 -39.6273
   -21.1252 -20.9234 -20.7311 -20.1695 -19.8139 -19.4761 -19.3273 -19.1828
   -19.0244 -18.7879 -18.6470 -18.5554 -18.1546 -18.1030 -17.9302 -17.7327
   -12.3594 -12.1247 -12.0558 -11.9186 -11.6957 -11.6661 -11.5643 -10.9530
   -10.9005 -10.6340 -10.5349  -9.8705  -9.7048  -9.3470  -9.1222  -8.6533
    -8.6342  -8.5636  -8.4013  -8.3686  -8.1725  -8.1142  -8.0775  -8.0588
    -7.6988  -7.6346  -7.5065  -7.4848  -7.3474  -7.1819  -7.0795  -6.8553
    -6.6325  -6.3846  -6.1732  -6.1689  -5.9660  -5.9394  -5.7946  -5.7413
    -5.4629  -5.3929  -5.1927  -5.0452  -4.4305  -4.3566  -4.0848  -3.7640
    -0.3487   0.6857   1.0102   1.0799   1.1650   1.2934   1.3261   1.7432
     1.8432   1.9173   2.0341   2.0928   2.1751   2.2411   2.2763   2.3301
     2.4026   2.4550   2.4877   2.5033   2.5385   2.6178

          k = 0.1667-0.0962 0.0000 ( 59226 PWs)   bands (ev):

   -68.1429 -68.1423 -39.6491 -39.6481 -39.6340 -39.6329 -39.6279 -39.6273
   -21.3228 -20.5440 -20.3552 -20.3493 -19.9986 -19.9879 -19.8160 -18.7394
   -18.7294 -18.3849 -18.3795 -18.3636 -18.2768 -18.2686 -18.0870 -18.0814
   -12.5195 -12.5129 -12.4195 -11.5932 -11.5874 -11.4380 -11.4310 -10.9374
   -10.9349  -9.9409  -9.9371  -9.6865  -9.3857  -9.3841  -9.2411  -9.2386
    -9.0534  -9.0519  -8.9149  -8.3347  -8.3315  -7.9124  -7.9107  -7.8688
    -7.8536  -7.7821  -7.5998  -7.5878  -7.1169  -7.0919  -6.9704  -6.9002
    -6.8961  -6.8520  -6.5430  -6.5391  -6.2689  -5.3356  -5.3156  -5.1542
    -5.0763  -4.8013  -4.7962  -4.7473  -4.6092  -4.6026  -4.3467  -4.3344
    -0.4087   0.7435   1.0385   1.1196   1.2401   1.4310   1.5124   1.5579
     1.8135   1.8839   1.9686   2.0105   2.0728   2.1351   2.2672   2.3290
     2.3899   2.4193   2.4757   2.5541   2.5990   2.6187

          k =-0.5000-0.8660 0.0000 ( 59292 PWs)   bands (ev):

   -68.1429 -68.1423 -39.6491 -39.6481 -39.6340 -39.6329 -39.6279 -39.6274
   -21.0689 -21.0458 -20.4800 -20.4731 -19.4373 -19.4274 -19.4227 -19.4182
   -19.0088 -18.9912 -18.3424 -18.3408 -18.3199 -18.3089 -17.8036 -17.7968
   -12.0905 -12.0855 -12.0682 -12.0610 -11.8916 -11.8831 -11.3469 -11.3321
   -10.2488 -10.2422 -10.1466 -10.1421 -10.1400 -10.1366  -8.5793  -8.5681
    -8.5646  -8.5489  -8.5441  -8.5348  -7.8780  -7.8746  -7.8709  -7.8691
    -7.8323  -7.8287  -7.7712  -7.7573  -7.5095  -7.4902  -6.6241  -6.6170
    -6.3428  -6.3173  -6.3078  -6.2932  -6.2066  -6.1927  -5.7116  -5.6900
    -5.5637  -5.5460  -4.7269  -4.7234  -4.6877  -4.6805  -3.8818  -3.8678
    -0.2694   0.3901   1.0149   1.0570   1.4247   1.4576   1.4865   1.5777
     1.7412   1.7597   2.0259   2.0518   2.1634   2.2937   2.3326   2.3583
     2.3815   2.4529   2.4806   2.4893   2.5297   2.6312

          k =-0.1667 0.2887 0.0000 ( 59267 PWs)   bands (ev):

   -68.1429 -68.1423 -39.6491 -39.6481 -39.6340 -39.6329 -39.6279 -39.6273
   -21.2562 -20.6781 -20.6570 -20.1134 -20.1060 -19.6052 -19.5841 -19.1090
   -18.7124 -18.6934 -18.4664 -18.4600 -18.2032 -18.0987 -18.0841 -17.8586
   -12.4954 -12.2185 -12.2123 -11.8351 -11.8267 -11.6700 -11.2091 -11.1940
   -10.4027 -10.3788 -10.1329 -10.1215  -9.6028  -9.5967  -8.8378  -8.8333
    -8.8259  -8.7850  -8.7659  -8.6081  -8.2088  -8.0454  -8.0084  -7.8403
    -7.8385  -7.4509  -7.4457  -7.2780  -7.2496  -7.2229  -7.2144  -6.9725
    -6.9664  -6.5658  -6.5297  -6.1661  -6.1629  -5.8663  -5.4293  -5.2891
    -5.2649  -5.2112  -4.9100  -4.8960  -4.4998  -4.3565  -4.3375  -3.9759
    -0.3796   0.7138   1.0324   1.1947   1.3542   1.3801   1.4417   1.5303
     1.5597   1.7897   1.9352   2.0918   2.1559   2.2227   2.2733   2.3356
     2.4218   2.4380   2.4820   2.5844   2.5945   2.6259

          k = 0.3333 0.0000 0.0000 ( 59267 PWs)   bands (ev):

   -68.1429 -68.1423 -39.6491 -39.6481 -39.6340 -39.6329 -39.6279 -39.6273
   -21.2560 -20.6895 -20.6455 -20.1136 -20.1050 -19.6165 -19.5738 -19.1100
   -18.7189 -18.6846 -18.4677 -18.4596 -18.2012 -18.1093 -18.0764 -17.8582
   -12.4951 -12.2193 -12.2114 -11.8392 -11.8239 -11.6688 -11.2178 -11.1857
   -10.4022 -10.3787 -10.1388 -10.1159  -9.6057  -9.5933  -8.8424  -8.8340
    -8.8193  -8.7951  -8.7566  -8.6085  -8.2097  -8.0756  -7.9780  -7.8399
    -7.8380  -7.4539  -7.4424  -7.2793  -7.2462  -7.2273  -7.2101  -6.9736
    -6.9660  -6.5932  -6.5054  -6.1673  -6.1613  -5.8687  -5.4292  -5.2968
    -5.2534  -5.2115  -4.9110  -4.8960  -4.4965  -4.3679  -4.3304  -3.9756
    -0.3371   0.5210   1.0522   1.1637   1.3422   1.4768   1.4938   1.5236
     1.5772   1.7902   2.0501   2.1349   2.2162   2.2216   2.2394   2.3798
     2.4003   2.4550   2.4999   2.5514   2.5664   2.5786

          k =-0.1667-0.4811 0.0000 ( 59291 PWs)   bands (ev):

   -68.1429 -68.1423 -39.6491 -39.6481 -39.6340 -39.6330 -39.6279 -39.6273
   -21.1252 -20.9234 -20.7311 -20.1695 -19.8139 -19.4761 -19.3273 -19.1828
   -19.0244 -18.7879 -18.6470 -18.5554 -18.1546 -18.1030 -17.9302 -17.7327
   -12.3594 -12.1247 -12.0558 -11.9186 -11.6956 -11.6661 -11.5643 -10.9530
   -10.9005 -10.6340 -10.5348  -9.8705  -9.7048  -9.3471  -9.1223  -8.6533
    -8.6341  -8.5636  -8.4012  -8.3686  -8.1725  -8.1142  -8.0775  -8.0589
    -7.6988  -7.6347  -7.5064  -7.4848  -7.3474  -7.1819  -7.0795  -6.8553
    -6.6325  -6.3846  -6.1733  -6.1689  -5.9660  -5.9393  -5.7946  -5.7413
    -5.4629  -5.3929  -5.1927  -5.0452  -4.4305  -4.3566  -4.0848  -3.7640
    -0.3487   0.6857   1.0102   1.0798   1.1650   1.2934   1.3261   1.7432
     1.8432   1.9174   2.0340   2.0927   2.1751   2.2410   2.2763   2.3301
     2.4026   2.4550   2.4877   2.5033   2.5386   2.6182

          k = 0.5000-0.0962 0.0000 ( 59291 PWs)   bands (ev):

   -68.1429 -68.1423 -39.6492 -39.6481 -39.6340 -39.6329 -39.6279 -39.6273
   -21.1238 -20.9272 -20.7286 -20.1686 -19.8140 -19.4772 -19.3300 -19.1804
   -19.0249 -18.7883 -18.6421 -18.5584 -18.1491 -18.1105 -17.9290 -17.7326
   -12.3587 -12.1250 -12.0547 -11.9208 -11.7018 -11.6586 -11.5655 -10.9533
   -10.8992 -10.6330 -10.5362  -9.8693  -9.7051  -9.3476  -9.1220  -8.6485
    -8.6344  -8.5622  -8.4037  -8.3834  -8.1714  -8.1042  -8.0844  -8.0528
    -7.6967  -7.6349  -7.5061  -7.4853  -7.3447  -7.1826  -7.0799  -6.8554
    -6.6327  -6.3876  -6.1812  -6.1689  -5.9588  -5.9392  -5.7942  -5.7427
    -5.4635  -5.3926  -5.1830  -5.0517  -4.4211  -4.3681  -4.0834  -3.7639
    -0.2703   0.3948   0.9957   1.0956   1.1605   1.2986   1.5955   1.7476
     1.7737   2.0064   2.0455   2.1233   2.1764   2.2363   2.3199   2.3576
     2.4108   2.4426   2.5014   2.5098   2.5527   2.6002

          k =-0.3333-0.3849 0.0000 ( 59291 PWs)   bands (ev):

   -68.1429 -68.1423 -39.6491 -39.6481 -39.6340 -39.6329 -39.6279 -39.6273
   -21.1243 -20.9259 -20.7296 -20.1685 -19.8150 -19.4762 -19.3275 -19.1823
   -19.0262 -18.7875 -18.6428 -18.5580 -18.1500 -18.1093 -17.9290 -17.7327
   -12.3591 -12.1238 -12.0560 -11.9202 -11.6957 -11.6654 -11.5650 -10.9532
   -10.8991 -10.6327 -10.5367  -9.8697  -9.7052  -9.3474  -9.1224  -8.6498
    -8.6337  -8.5635  -8.4021  -8.3781  -8.1722  -8.1079  -8.0781  -8.0596
    -7.6969  -7.6341  -7.5095  -7.4822  -7.3443  -7.1827  -7.0801  -6.8584
    -6.6316  -6.3846  -6.1745  -6.1697  -5.9641  -5.9386  -5.7944  -5.7464
    -5.4634  -5.3905  -5.1831  -5.0518  -4.4219  -4.3674  -4.0832  -3.7640
    -0.3001   0.4824   1.0018   1.0627   1.2016   1.2880   1.4789   1.7642
     1.8923   1.9476   2.0308   2.0725   2.1539   2.2871   2.2989   2.3566
     2.3933   2.4450   2.4703   2.5180   2.5642   2.5941

          k = 0.5000 0.0962 0.0000 ( 59291 PWs)   bands (ev):

   -68.1429 -68.1423 -39.6492 -39.6481 -39.6340 -39.6329 -39.6279 -39.6273
   -21.1238 -20.9272 -20.7286 -20.1686 -19.8140 -19.4772 -19.3300 -19.1804
   -19.0249 -18.7883 -18.6421 -18.5584 -18.1491 -18.1105 -17.9290 -17.7326
   -12.3587 -12.1250 -12.0547 -11.9209 -11.7018 -11.6586 -11.5655 -10.9533
   -10.8992 -10.6330 -10.5363  -9.8693  -9.7051  -9.3476  -9.1219  -8.6485
    -8.6344  -8.5623  -8.4037  -8.3834  -8.1714  -8.1042  -8.0843  -8.0528
    -7.6968  -7.6349  -7.5061  -7.4854  -7.3447  -7.1827  -7.0798  -6.8554
    -6.6326  -6.3876  -6.1812  -6.1688  -5.9588  -5.9391  -5.7943  -5.7427
    -5.4635  -5.3926  -5.1830  -5.0516  -4.4211  -4.3681  -4.0834  -3.7639
    -0.2703   0.3948   0.9957   1.0957   1.1605   1.2986   1.5956   1.7475
     1.7737   2.0064   2.0455   2.1232   2.1763   2.2364   2.3199   2.3577
     2.4108   2.4427   2.5016   2.5093   2.5522   2.6013

          k =-0.3333 0.3849 0.0000 ( 59291 PWs)   bands (ev):

   -68.1429 -68.1423 -39.6491 -39.6481 -39.6340 -39.6329 -39.6279 -39.6273
   -21.1243 -20.9259 -20.7296 -20.1685 -19.8150 -19.4762 -19.3275 -19.1823
   -19.0262 -18.7875 -18.6427 -18.5580 -18.1500 -18.1093 -17.9290 -17.7327
   -12.3591 -12.1238 -12.0560 -11.9202 -11.6958 -11.6654 -11.5650 -10.9533
   -10.8991 -10.6327 -10.5367  -9.8697  -9.7051  -9.3473  -9.1224  -8.6498
    -8.6338  -8.5635  -8.4021  -8.3781  -8.1723  -8.1079  -8.0781  -8.0595
    -7.6968  -7.6341  -7.5095  -7.4822  -7.3443  -7.1827  -7.0802  -6.8585
    -6.6316  -6.3846  -6.1745  -6.1697  -5.9640  -5.9387  -5.7943  -5.7464
    -5.4633  -5.3905  -5.1831  -5.0519  -4.4219  -4.3674  -4.0832  -3.7640
    -0.3001   0.4824   1.0017   1.0627   1.2016   1.2880   1.4789   1.7642
     1.8922   1.9476   2.0307   2.0725   2.1540   2.2870   2.2989   2.3567
     2.3932   2.4450   2.4703   2.5183   2.5643   2.5937

          k =-0.1667-0.0962 0.0000 ( 59226 PWs)   bands (ev):

   -68.1429 -68.1423 -39.6491 -39.6481 -39.6340 -39.6329 -39.6279 -39.6273
   -21.3228 -20.5440 -20.3553 -20.3493 -19.9986 -19.9879 -19.8160 -18.7394
   -18.7295 -18.3849 -18.3795 -18.3636 -18.2768 -18.2686 -18.0870 -18.0814
   -12.5195 -12.5129 -12.4195 -11.5931 -11.5874 -11.4380 -11.4311 -10.9374
   -10.9350  -9.9409  -9.9371  -9.6865  -9.3856  -9.3841  -9.2411  -9.2386
    -9.0534  -9.0519  -8.9149  -8.3348  -8.3316  -7.9124  -7.9106  -7.8688
    -7.8535  -7.7822  -7.5998  -7.5878  -7.1168  -7.0919  -6.9704  -6.9002
    -6.8961  -6.8520  -6.5429  -6.5390  -6.2690  -5.3356  -5.3156  -5.1541
    -5.0764  -4.8013  -4.7962  -4.7473  -4.6092  -4.6026  -4.3467  -4.3344
    -0.4087   0.7435   1.0384   1.1196   1.2401   1.4310   1.5125   1.5579
     1.8135   1.8839   1.9686   2.0105   2.0727   2.1351   2.2672   2.3289
     2.3899   2.4193   2.4757   2.5539   2.5990   2.6185

          k =-0.0000-0.1925 0.0000 ( 59226 PWs)   bands (ev):

   -68.1429 -68.1423 -39.6491 -39.6481 -39.6340 -39.6329 -39.6279 -39.6273
   -21.3228 -20.5415 -20.3612 -20.3478 -19.9961 -19.9868 -19.8177 -18.7388
   -18.7284 -18.3941 -18.3804 -18.3629 -18.2680 -18.2672 -18.0898 -18.0809
   -12.5203 -12.5122 -12.4193 -11.5948 -11.5866 -11.4376 -11.4298 -10.9388
   -10.9345  -9.9394  -9.9386  -9.6867  -9.3860  -9.3831  -9.2400  -9.2400
    -9.0537  -9.0517  -8.9153  -8.3337  -8.3322  -7.9119  -7.9105  -7.8627
    -7.8499  -7.7830  -7.6252  -7.5785  -7.1132  -7.0832  -6.9697  -6.9004
    -6.8967  -6.8579  -6.5432  -6.5385  -6.2692  -5.3390  -5.3086  -5.1543
    -5.0762  -4.8121  -4.7999  -4.7486  -4.6000  -4.5960  -4.3537  -4.3310
    -0.4253   0.8760   1.0102   1.1514   1.2326   1.3855   1.4829   1.5707
     1.7424   1.8431   1.9578   1.9834   2.0129   2.1504   2.2643   2.3376
     2.3808   2.4550   2.4572   2.5848   2.6145   2.6418

          k = 0.5000-0.8660 0.0000 ( 59292 PWs)   bands (ev):

   -68.1429 -68.1423 -39.6491 -39.6481 -39.6340 -39.6329 -39.6279 -39.6274
   -21.0689 -21.0457 -20.4800 -20.4731 -19.4373 -19.4274 -19.4228 -19.4182
   -19.0088 -18.9911 -18.3425 -18.3408 -18.3199 -18.3089 -17.8036 -17.7968
   -12.0907 -12.0855 -12.0681 -12.0610 -11.8916 -11.8831 -11.3469 -11.3320
   -10.2488 -10.2423 -10.1466 -10.1421 -10.1400 -10.1366  -8.5793  -8.5681
    -8.5647  -8.5487  -8.5440  -8.5348  -7.8780  -7.8746  -7.8709  -7.8691
    -7.8323  -7.8287  -7.7712  -7.7573  -7.5096  -7.4903  -6.6241  -6.6169
    -6.3428  -6.3173  -6.3078  -6.2932  -6.2066  -6.1925  -5.7116  -5.6900
    -5.5639  -5.5461  -4.7269  -4.7234  -4.6876  -4.6805  -3.8819  -3.8678
    -0.2694   0.3901   1.0149   1.0570   1.4246   1.4576   1.4866   1.5778
     1.7413   1.7596   2.0259   2.0517   2.1634   2.2937   2.3325   2.3580
     2.3817   2.4535   2.4805   2.4889   2.5297   2.6307

          k =-1.0000 0.0000 0.0000 ( 59292 PWs)   bands (ev):

   -68.1429 -68.1423 -39.6491 -39.6481 -39.6340 -39.6330 -39.6279 -39.6273
   -21.0792 -21.0340 -20.4839 -20.4715 -19.4326 -19.4291 -19.4280 -19.4132
   -19.0167 -18.9840 -18.3674 -18.3411 -18.3069 -18.2970 -17.8050 -17.7962
   -12.1081 -12.0902 -12.0543 -12.0506 -11.8918 -11.8833 -11.3572 -11.3228
   -10.2498 -10.2495 -10.1434 -10.1426 -10.1362 -10.1357  -8.6058  -8.5806
    -8.5675  -8.5416  -8.5328  -8.5038  -7.8836  -7.8778  -7.8711  -7.8706
    -7.8273  -7.8261  -7.7874  -7.7474  -7.5201  -7.4807  -6.6227  -6.6171
    -6.3467  -6.3119  -6.3106  -6.2829  -6.2150  -6.1860  -5.7234  -5.6817
    -5.5730  -5.5369  -4.7590  -4.7379  -4.6637  -4.6591  -3.8845  -3.8660
    -0.3688   0.8066   1.0505   1.0896   1.2341   1.2754   1.5048   1.5869
     1.6212   1.7361   1.8846   2.1180   2.1527   2.2344   2.2788   2.3315
     2.3758   2.4868   2.5408   2.5411   2.6126   2.6661

     the Fermi energy is    -0.8578 ev

!    total energy              =   -1133.81549205 Ry

     total all-electron energy =     -6753.491195 Ry
     estimated scf accuracy    <       0.00000003 Ry
     smearing contrib. (-TS)   =      -0.00000000 Ry
     internal energy E=F+TS    =   -1133.81549205 Ry

     The total energy is F=E-TS. E is the sum of the following terms:
     one-electron contribution =   -3921.02897213 Ry
     hartree contribution      =    1989.10164066 Ry
     xc contribution           =    -186.20063601 Ry
     ewald contribution        =    1343.68148087 Ry
     DFT-D3 Dispersion         =      -0.14029742 Ry
     one-center paw contrib.   =    -359.22870801 Ry

     total magnetization       =    12.00 Bohr mag/cell
     absolute magnetization    =    12.00 Bohr mag/cell

     convergence has been achieved in  12 iterations

     Writing output data file ./mytmp/Crdimer0.3-0.0.save/
 
     init_run     :     18.80s CPU     20.30s WALL (       1 calls)
     electrons    :    477.87s CPU    518.53s WALL (       1 calls)

     Called by init_run:
     wfcinit      :     13.82s CPU     14.75s WALL (       1 calls)
     potinit      :      1.50s CPU      1.58s WALL (       1 calls)
     hinit0       :      1.52s CPU      1.61s WALL (       1 calls)

     Called by electrons:
     c_bands      :    380.32s CPU    403.91s WALL (      12 calls)
     sum_band     :     69.11s CPU     79.21s WALL (      12 calls)
     v_of_rho     :      6.43s CPU      7.18s WALL (      13 calls)
     newd         :     15.49s CPU     21.74s WALL (      13 calls)
     PAW_pot      :      6.34s CPU      6.43s WALL (      13 calls)
     mix_rho      :      0.78s CPU      0.90s WALL (      12 calls)

     Called by c_bands:
     init_us_2    :      4.33s CPU      4.40s WALL (     750 calls)
     cegterg      :    369.68s CPU    393.17s WALL (     360 calls)

     Called by *egterg:
     cdiaghg      :     22.96s CPU     36.00s WALL (    2455 calls)
     h_psi        :    225.81s CPU    234.99s WALL (    2485 calls)
     s_psi        :     24.67s CPU     24.81s WALL (    2485 calls)
     g_psi        :      0.63s CPU      0.65s WALL (    2095 calls)

     Called by h_psi:
     h_psi:calbec :     26.34s CPU     27.09s WALL (    2485 calls)
     vloc_psi     :    172.03s CPU    180.17s WALL (    2485 calls)
     add_vuspsi   :     25.37s CPU     25.63s WALL (    2485 calls)

     General routines
     calbec       :     34.53s CPU     35.47s WALL (    2845 calls)
     fft          :      7.66s CPU     11.55s WALL (     319 calls)
     ffts         :      0.10s CPU      0.11s WALL (      50 calls)
     fftw         :    174.82s CPU    183.09s WALL (  227676 calls)
     interpolate  :      0.35s CPU      0.39s WALL (      26 calls)
 
     Parallel routines
     fft_scatt_xy :     27.77s CPU     28.89s WALL (  228045 calls)
     fft_scatt_yz :     71.52s CPU     79.11s WALL (  228045 calls)
 
     PWSCF        :   8m18.77s CPU   9m 3.53s WALL

 
   This run was terminated on:   0:29:56  30Mar2021            

=------------------------------------------------------------------------------=
   JOB DONE.
=------------------------------------------------------------------------------=
