
     Program PWSCF v.6.7MaX starts on 29Mar2021 at 21: 3:39 

     This program is part of the open-source Quantum ESPRESSO suite
     for quantum simulation of materials; please cite
         "P. Giannozzi et al., J. Phys.:Condens. Matter 21 395502 (2009);
         "P. Giannozzi et al., J. Phys.:Condens. Matter 29 465901 (2017);
          URL http://www.quantum-espresso.org", 
     in publications or presentations arising from this work. More details at
     http://www.quantum-espresso.org/quote

     Parallel version (MPI), running on    48 processors

     MPI processes distributed on     1 nodes
     R & G space division:  proc/nbgrp/npool/nimage =      48
     Reading input from Crdimer0.22-0.1.scf.in

     Current dimensions of program PWSCF are:
     Max number of different atomic species (ntypx) = 10
     Max number of k-points (npk) =  40000
     Max angular momentum in pseudopotentials (lmaxx) =  3
     file N.pbe-n-kjpaw_psl.1.0.0.UPF: wavefunction(s)  2S renormalized
     file Cr.pbe-spn-kjpaw_psl.1.0.0.UPF: wavefunction(s)  3S 3P 3D renormalized
     file Cr.pbe-spn-kjpaw_psl.1.0.0.UPF: wavefunction(s)  3S 3P 3D renormalized

     --------------------------------------------
     Parameters for DFT-D3 Dispersion Correction:
     --------------------------------------------
       Reference C6 values for interpolation: 

         atom   Coordination number   C6
         B          0.000           214.36
         B          0.971           150.74
         B          1.944           106.23
         B          2.913            62.89
         B          4.586            56.06
         N          0.000            50.54
         N          0.994            44.25
         N          2.014            39.35
         N          2.990            31.16
         Cr1        0.000          1381.48
         Cr1        1.827           571.38
         Cr1       10.619           306.69
         Cr2        0.000          1381.48
         Cr2        1.827           571.38
         Cr2       10.619           306.69

       Values used:

         atom   Coordination number  R0_AB[au]  C6      C8
         B          3.341            3.039     62.89   2505.86
         B          3.336            3.039     62.89   2506.00
         B          3.342            3.039     62.89   2505.85
         B          3.338            3.039     62.89   2505.95
         B          3.347            3.039     62.88   2505.72
         B          3.336            3.039     62.89   2505.99
         N          3.135            2.478     31.22    688.69
         N          3.134            2.478     31.22    688.70
         N          3.153            2.478     31.21    688.53
         N          3.142            2.478     31.21    688.62
         N          3.136            2.478     31.22    688.68
         N          3.134            2.478     31.22    688.70
         N          3.138            2.478     31.22    688.66
         N          3.135            2.478     31.22    688.69
         N          3.135            2.478     31.22    688.69
         B          3.336            3.039     62.89   2506.00
         B          3.336            3.039     62.89   2506.00
         B          3.336            3.039     62.89   2505.99
         B          3.347            3.039     62.88   2505.72
         B          3.341            3.039     62.89   2505.86
         B          3.336            3.039     62.89   2506.00
         N          3.138            2.478     31.22    688.66
         B          3.335            3.039     62.89   2506.01
         B          3.335            3.039     62.89   2506.00
         B          3.364            3.039     62.87   2505.24
         N          3.134            2.478     31.22    688.70
         N          3.134            2.478     31.22    688.70
         N          3.136            2.478     31.22    688.68
         N          3.136            2.478     31.22    688.68
         N          3.153            2.478     31.21    688.53
         N          3.142            2.478     31.21    688.62
         B          3.364            3.039     62.87   2505.24
         Cr1        0.100            3.252   1381.48 127494.78
         Cr2        0.100            3.252   1381.48 127494.78

         Molecular C6 ( Ry / a.u.^6 ) =     79164.77


     Subspace diagonalization in iterative solution of the eigenvalue problem:
     one sub-group per band group will be used
     scalapack distributed-memory algorithm (size of sub-group:  6*  6 procs)

 
     Parallelization info
     --------------------
     sticks:   dense  smooth     PW     G-vecs:    dense   smooth      PW
     Min         235      98     26                36277     9874    1408
     Max         236      99     27                36282     9883    1425
     Sum       11311    4741   1285              1741401   474235   68095
 


     bravais-lattice index     =            4
     lattice parameter (alat)  =      18.9275  a.u.
     unit-cell volume          =   10553.3021 (a.u.)^3
     number of atoms/cell      =           34
     number of atomic types    =            4
     number of electrons       =       156.00
     number of Kohn-Sham states=           94
     kinetic-energy cutoff     =      48.0000  Ry
     charge density cutoff     =     457.0000  Ry
     scf convergence threshold =      1.0E-07
     mixing beta               =       0.5000
     number of iterations used =            8  plain     mixing
     Exchange-correlation= SLA  PW   PBX  PBC
                           (   1   4   3   4   0   0   0)

     celldm(1)=  18.927497  celldm(2)=   0.000000  celldm(3)=   1.797125
     celldm(4)=   0.000000  celldm(5)=   0.000000  celldm(6)=   0.000000

     crystal axes: (cart. coord. in units of alat)
               a(1) = (   1.000000   0.000000   0.000000 )  
               a(2) = (  -0.500000   0.866025   0.000000 )  
               a(3) = (   0.000000   0.000000   1.797125 )  

     reciprocal axes: (cart. coord. in units 2 pi/alat)
               b(1) = (  1.000000  0.577350  0.000000 )  
               b(2) = (  0.000000  1.154701  0.000000 )  
               b(3) = (  0.000000  0.000000  0.556444 )  


     PseudoPot. # 1 for B  read from file:
     /home/sf05/q-e-qe-6.7MaX-Release/pseudo/B.pbe-n-kjpaw_psl.1.0.0.UPF
     MD5 check sum: d9c678ba5d3b2fd7b74e61139c9288d8
     Pseudo is Projector augmented-wave + core cor, Zval =  3.0
     Generated using "atomic" code by A. Dal Corso  v.5.1.2
     Shape of augmentation charge: PSQ
     Using radial grid of 1059 points,  4 beta functions with: 
                l(1) =   0
                l(2) =   0
                l(3) =   1
                l(4) =   1
     Q(r) pseudized with 0 coefficients 


     PseudoPot. # 2 for N  read from file:
     /home/sf05/q-e-qe-6.7MaX-Release/pseudo/N.pbe-n-kjpaw_psl.1.0.0.UPF
     MD5 check sum: e0e4e94a9c4025c5b51bd7d8793849bd
     Pseudo is Projector augmented-wave + core cor, Zval =  5.0
     Generated using "atomic" code by A. Dal Corso  v.5.1.2
     Shape of augmentation charge: PSQ
     Using radial grid of 1085 points,  4 beta functions with: 
                l(1) =   0
                l(2) =   0
                l(3) =   1
                l(4) =   1
     Q(r) pseudized with 0 coefficients 


     PseudoPot. # 3 for Cr read from file:
     /home/sf05/q-e-qe-6.7MaX-Release/pseudo/Cr.pbe-spn-kjpaw_psl.1.0.0.UPF
     MD5 check sum: 198f1a2427a48552563eee314eba32ba
     Pseudo is Projector augmented-wave + core cor, Zval = 14.0
     Generated using &quot;atomic&quot; code by A. Dal Corso  v.6.3
     Shape of augmentation charge: PSQ
     Using radial grid of 1183 points,  6 beta functions with: 
                l(1) =   0
                l(2) =   0
                l(3) =   1
                l(4) =   1
                l(5) =   2
                l(6) =   2
     Q(r) pseudized with 0 coefficients 


     PseudoPot. # 4 for Cr read from file:
     /home/sf05/q-e-qe-6.7MaX-Release/pseudo/Cr.pbe-spn-kjpaw_psl.1.0.0.UPF
     MD5 check sum: 198f1a2427a48552563eee314eba32ba
     Pseudo is Projector augmented-wave + core cor, Zval = 14.0
     Generated using &quot;atomic&quot; code by A. Dal Corso  v.6.3
     Shape of augmentation charge: PSQ
     Using radial grid of 1183 points,  6 beta functions with: 
                l(1) =   0
                l(2) =   0
                l(3) =   1
                l(4) =   1
                l(5) =   2
                l(6) =   2
     Q(r) pseudized with 0 coefficients 


     atomic species   valence    mass     pseudopotential
        B              3.00    10.81100     B ( 1.00)
        N              5.00    14.00674     N ( 1.00)
        Cr1           14.00    51.99610     Cr( 1.00)
        Cr2           14.00    51.99610     Cr( 1.00)

     Starting magnetic structure 
     atomic species   magnetization
        B            0.000
        N            0.000
        Cr1          1.000
        Cr2          1.000

     No symmetry found



   Cartesian axes

     site n.     atom                  positions (alat units)
         1           B   tau(   1) = (  -0.1250000   0.2165064   0.8985623  )
         2           B   tau(   2) = (   0.3750000   0.6495191   0.8985623  )
         3           B   tau(   3) = (   0.2500000   0.0000000   0.8985623  )
         4           B   tau(   4) = (   0.7500000   0.0000000   0.8985623  )
         5           B   tau(   5) = (   0.1250000   0.2165064   0.8985623  )
         6           B   tau(   6) = (  -0.3750000   0.6495191   0.8985623  )
         7           N   tau(   7) = (   0.7500005   0.2886748   0.8985623  )
         8           N   tau(   8) = (   0.3750005   0.5051812   0.8985623  )
         9           N   tau(   9) = (   0.3750005   0.0721685   0.8985623  )
        10           N   tau(  10) = (   0.6250005   0.0721685   0.8985623  )
        11           N   tau(  11) = (   0.2500005   0.2886748   0.8985623  )
        12           N   tau(  12) = (   0.6250005   0.5051812   0.8985623  )
        13           N   tau(  13) = (   0.0000005   0.2886748   0.8985623  )
        14           N   tau(  14) = (   0.2500005   0.7216875   0.8985623  )
        15           N   tau(  15) = (  -0.2499995   0.7216875   0.8985623  )
        16           B   tau(  16) = (   0.0000000   0.4330127   0.8985623  )
        17           B   tau(  17) = (   0.1250000   0.6495191   0.8985623  )
        18           B   tau(  18) = (  -0.1250000   0.6495191   0.8985623  )
        19           B   tau(  19) = (   0.3750000   0.2165064   0.8985623  )
        20           B   tau(  20) = (   0.6250000   0.2165064   0.8985623  )
        21           B   tau(  21) = (   0.5000000   0.4330127   0.8985623  )
        22           N   tau(  22) = (   0.5000005   0.2886748   0.8985623  )
        23           B   tau(  23) = (  -0.2500000   0.4330127   0.8985623  )
        24           B   tau(  24) = (   0.2500000   0.4330127   0.8985623  )
        25           B   tau(  25) = (   0.5000000   0.0000000   0.8985623  )
        26           N   tau(  26) = (  -0.1249995   0.5051812   0.8985623  )
        27           N   tau(  27) = (   0.1250005   0.5051812   0.8985623  )
        28           N   tau(  28) = (   0.0000005   0.7216875   0.8985623  )
        29           N   tau(  29) = (   0.5000005   0.7216875   0.8985623  )
        30           N   tau(  30) = (   0.1250005   0.0721685   0.8985623  )
        31           N   tau(  31) = (   0.8750005   0.0721685   0.8985623  )
        32           B   tau(  32) = (   0.0000000   0.0000000   0.8985623  )
        33           Cr1 tau(  33) = (   0.4700000   0.0866025   1.2040735  )
        34           Cr2 tau(  34) = (   0.0300000   0.0866025   1.2040735  )

     number of k points=    15  Gaussian smearing, width (Ry)=  0.0000
                       cart. coord. in units 2pi/alat
        k(    1) = (   0.1666667   0.2886751   0.0000000), wk =   0.0740741
        k(    2) = (   0.1666667  -0.4811252   0.0000000), wk =   0.0740741
        k(    3) = (   0.1666667  -0.0962250   0.0000000), wk =   0.0740741
        k(    4) = (  -0.5000000  -0.8660254   0.0000000), wk =   0.0370370
        k(    5) = (  -0.1666667   0.2886751   0.0000000), wk =   0.0740741
        k(    6) = (   0.3333333   0.0000000   0.0000000), wk =   0.0740741
        k(    7) = (  -0.1666667  -0.4811252   0.0000000), wk =   0.0740741
        k(    8) = (   0.5000000  -0.0962250   0.0000000), wk =   0.0740741
        k(    9) = (  -0.3333333  -0.3849002   0.0000000), wk =   0.0740741
        k(   10) = (   0.5000000   0.0962250   0.0000000), wk =   0.0740741
        k(   11) = (  -0.3333333   0.3849002   0.0000000), wk =   0.0740741
        k(   12) = (  -0.1666667  -0.0962250   0.0000000), wk =   0.0740741
        k(   13) = (  -0.0000000  -0.1924501   0.0000000), wk =   0.0740741
        k(   14) = (   0.5000000  -0.8660254   0.0000000), wk =   0.0370370
        k(   15) = (  -1.0000000   0.0000000   0.0000000), wk =   0.0370370

     Dense  grid:  1741401 G-vectors     FFT dimensions: ( 135, 135, 240)

     Smooth grid:   474235 G-vectors     FFT dimensions: (  90,  90, 160)

     Estimated max dynamical RAM per process >     218.62 MB

     Estimated total dynamical RAM >      10.25 GB
     Generating pointlists ...
     new r_m :   0.0595 (alat units)  1.1269 (a.u.) for type    1
     new r_m :   0.0595 (alat units)  1.1269 (a.u.) for type    2
     new r_m :   0.1316 (alat units)  2.4903 (a.u.) for type    3
     new r_m :   0.1316 (alat units)  2.4903 (a.u.) for type    4

     Initial potential from superposition of free atoms

     starting charge  155.99382, renormalised to  156.00000

     negative rho (up, down):  6.520E-03 4.655E-04
     Starting wfcs are  148 randomized atomic wfcs
     Checking if some PAW data can be deallocated... 

     total cpu time spent up to now is       19.5 secs

     Self-consistent Calculation

     iteration #  1     ecut=    48.00 Ry     beta= 0.50
     Davidson diagonalization with overlap
     ethr =  1.00E-02,  avg # of iterations =  2.9

     negative rho (up, down):  4.700E-03 2.933E-03

     total cpu time spent up to now is       59.5 secs

     total energy              =   -1130.76689467 Ry
     estimated scf accuracy    <      11.37217649 Ry

     total magnetization       =    12.00 Bohr mag/cell
     absolute magnetization    =    12.16 Bohr mag/cell

     iteration #  2     ecut=    48.00 Ry     beta= 0.50
     Davidson diagonalization with overlap
     ethr =  7.29E-03,  avg # of iterations =  2.6

     negative rho (up, down):  6.993E-03 1.078E-02

     total cpu time spent up to now is       96.5 secs

     total energy              =   -1133.11490497 Ry
     estimated scf accuracy    <       3.12752664 Ry

     total magnetization       =    12.00 Bohr mag/cell
     absolute magnetization    =    12.00 Bohr mag/cell

     iteration #  3     ecut=    48.00 Ry     beta= 0.50
     Davidson diagonalization with overlap
     ethr =  2.00E-03,  avg # of iterations =  6.5

     negative rho (up, down):  3.442E-03 6.044E-03

     total cpu time spent up to now is      133.2 secs

     total energy              =   -1133.64021843 Ry
     estimated scf accuracy    <       0.61758870 Ry

     total magnetization       =    12.00 Bohr mag/cell
     absolute magnetization    =    12.05 Bohr mag/cell

     iteration #  4     ecut=    48.00 Ry     beta= 0.50
     Davidson diagonalization with overlap
     ethr =  3.96E-04,  avg # of iterations =  7.7

     negative rho (up, down):  6.883E-03 1.420E-02

     total cpu time spent up to now is      170.5 secs

     total energy              =   -1133.79449695 Ry
     estimated scf accuracy    <       0.26656832 Ry

     total magnetization       =    12.00 Bohr mag/cell
     absolute magnetization    =    12.00 Bohr mag/cell

     iteration #  5     ecut=    48.00 Ry     beta= 0.50
     Davidson diagonalization with overlap
     ethr =  1.71E-04,  avg # of iterations =  8.4

     negative rho (up, down):  4.477E-03 9.858E-03

     total cpu time spent up to now is      208.5 secs

     total energy              =   -1133.80926398 Ry
     estimated scf accuracy    <       0.01714941 Ry

     total magnetization       =    12.00 Bohr mag/cell
     absolute magnetization    =    12.00 Bohr mag/cell

     iteration #  6     ecut=    48.00 Ry     beta= 0.50
     Davidson diagonalization with overlap
     c_bands:  2 eigenvalues not converged
     c_bands:  1 eigenvalues not converged
     c_bands:  3 eigenvalues not converged
     c_bands:  2 eigenvalues not converged
     c_bands:  2 eigenvalues not converged
     c_bands:  1 eigenvalues not converged
     c_bands:  1 eigenvalues not converged
     c_bands:  4 eigenvalues not converged
     c_bands:  2 eigenvalues not converged
     c_bands:  2 eigenvalues not converged
     c_bands:  2 eigenvalues not converged
     c_bands:  2 eigenvalues not converged
     ethr =  1.10E-05,  avg # of iterations = 15.4

     negative rho (up, down):  3.334E-03 7.780E-03

     total cpu time spent up to now is      289.3 secs

     total energy              =   -1133.81193030 Ry
     estimated scf accuracy    <       0.00440900 Ry

     total magnetization       =    12.00 Bohr mag/cell
     absolute magnetization    =    12.01 Bohr mag/cell

     iteration #  7     ecut=    48.00 Ry     beta= 0.50
     Davidson diagonalization with overlap
     ethr =  2.83E-06,  avg # of iterations =  9.3

     negative rho (up, down):  3.008E-03 7.509E-03

     total cpu time spent up to now is      332.0 secs

     total energy              =   -1133.81283854 Ry
     estimated scf accuracy    <       0.00035478 Ry

     total magnetization       =    12.00 Bohr mag/cell
     absolute magnetization    =    12.00 Bohr mag/cell

     iteration #  8     ecut=    48.00 Ry     beta= 0.50
     Davidson diagonalization with overlap
     ethr =  2.27E-07,  avg # of iterations =  5.1

     negative rho (up, down):  2.878E-03 7.317E-03

     total cpu time spent up to now is      367.9 secs

     total energy              =   -1133.81291693 Ry
     estimated scf accuracy    <       0.00006657 Ry

     total magnetization       =    12.00 Bohr mag/cell
     absolute magnetization    =    12.00 Bohr mag/cell

     iteration #  9     ecut=    48.00 Ry     beta= 0.50
     Davidson diagonalization with overlap
     ethr =  4.27E-08,  avg # of iterations =  2.4

     negative rho (up, down):  2.841E-03 7.284E-03

     total cpu time spent up to now is      403.8 secs

     total energy              =   -1133.81297911 Ry
     estimated scf accuracy    <       0.00000528 Ry

     total magnetization       =    12.00 Bohr mag/cell
     absolute magnetization    =    12.00 Bohr mag/cell

     iteration # 10     ecut=    48.00 Ry     beta= 0.50
     Davidson diagonalization with overlap
     ethr =  3.39E-09,  avg # of iterations =  4.3

     negative rho (up, down):  2.830E-03 7.282E-03

     total cpu time spent up to now is      440.9 secs

     total energy              =   -1133.81300219 Ry
     estimated scf accuracy    <       0.00000296 Ry

     total magnetization       =    12.00 Bohr mag/cell
     absolute magnetization    =    12.00 Bohr mag/cell

     iteration # 11     ecut=    48.00 Ry     beta= 0.50
     Davidson diagonalization with overlap
     ethr =  1.90E-09,  avg # of iterations =  2.2

     negative rho (up, down):  2.826E-03 7.284E-03

     total cpu time spent up to now is      477.2 secs

     total energy              =   -1133.81301483 Ry
     estimated scf accuracy    <       0.00000025 Ry

     total magnetization       =    12.00 Bohr mag/cell
     absolute magnetization    =    12.00 Bohr mag/cell

     iteration # 12     ecut=    48.00 Ry     beta= 0.50
     Davidson diagonalization with overlap
     ethr =  1.62E-10,  avg # of iterations =  4.2

     negative rho (up, down):  2.823E-03 7.288E-03
 
     Magnetic moment per site:
     atom:    1    charge:    0.8803    magn:    0.0002    constr:    0.0000
     atom:    2    charge:    0.8803    magn:    0.0002    constr:    0.0000
     atom:    3    charge:    0.8804    magn:    0.0017    constr:    0.0000
     atom:    4    charge:    0.8803    magn:    0.0012    constr:    0.0000
     atom:    5    charge:    0.8805    magn:    0.0004    constr:    0.0000
     atom:    6    charge:    0.8803    magn:    0.0002    constr:    0.0000
     atom:    7    charge:    2.8609    magn:    0.0010    constr:    0.0000
     atom:    8    charge:    2.8609    magn:    0.0002    constr:    0.0000
     atom:    9    charge:    2.8606    magn:    0.0105    constr:    0.0000
     atom:   10    charge:    2.8606    magn:    0.0070    constr:    0.0000
     atom:   11    charge:    2.8609    magn:    0.0023    constr:    0.0000
     atom:   12    charge:    2.8609    magn:    0.0002    constr:    0.0000
     atom:   13    charge:    2.8597    magn:    0.0038    constr:    0.0000
     atom:   14    charge:    2.8598    magn:    0.0008    constr:    0.0000
     atom:   15    charge:    2.8598    magn:    0.0015    constr:    0.0000
     atom:   16    charge:    0.8800    magn:    0.0004    constr:    0.0000
     atom:   17    charge:    0.8800    magn:    0.0002    constr:    0.0000
     atom:   18    charge:    0.8800    magn:    0.0002    constr:    0.0000
     atom:   19    charge:    0.8799    magn:    0.0004    constr:    0.0000
     atom:   20    charge:    0.8797    magn:    0.0002    constr:    0.0000
     atom:   21    charge:    0.8798    magn:    0.0004    constr:    0.0000
     atom:   22    charge:    2.8610    magn:    0.0038    constr:    0.0000
     atom:   23    charge:    0.8799    magn:    0.0001    constr:    0.0000
     atom:   24    charge:    0.8799    magn:    0.0001    constr:    0.0000
     atom:   25    charge:    0.8804    magn:    0.0003    constr:    0.0000
     atom:   26    charge:    2.8598    magn:    0.0002    constr:    0.0000
     atom:   27    charge:    2.8598    magn:    0.0002    constr:    0.0000
     atom:   28    charge:    2.8596    magn:    0.0033    constr:    0.0000
     atom:   29    charge:    2.8594    magn:    0.0033    constr:    0.0000
     atom:   30    charge:    2.8593    magn:    0.0105    constr:    0.0000
     atom:   31    charge:    2.8593    magn:    0.0070    constr:    0.0000
     atom:   32    charge:    0.8807    magn:    0.0003    constr:    0.0000
     atom:   33    charge:   12.8678    magn:    4.8541    constr:    0.0000
     atom:   34    charge:   12.8678    magn:    4.8542    constr:    0.0000

     total cpu time spent up to now is      511.4 secs

     End of self-consistent calculation

 ------ SPIN UP ------------


          k = 0.1667 0.2887 0.0000 ( 59267 PWs)   bands (ev):

   -72.4719 -72.4716 -43.9366 -43.9364 -43.9322 -43.9318 -43.9265 -43.9263
   -21.2697 -20.6881 -20.6732 -20.1263 -20.1197 -19.6148 -19.6002 -19.1220
   -18.7252 -18.7097 -18.4786 -18.4742 -18.2178 -18.1091 -18.0975 -17.8720
   -12.5068 -12.2274 -12.2248 -11.8438 -11.8382 -11.6801 -11.2177 -11.2076
   -10.4135 -10.3903 -10.1422 -10.1340  -9.6128  -9.6086  -8.8590  -8.8495
    -8.8452  -8.7921  -8.7792  -8.6184  -8.2188  -8.0727  -8.0413  -7.8514
    -7.8488  -7.4622  -7.4580  -7.3134  -7.2724  -7.2322  -7.2263  -6.9812
    -6.9781  -6.5891  -6.5602  -6.1765  -6.1741  -5.8943  -5.4405  -5.3224
    -5.2934  -5.2221  -4.9408  -4.9175  -4.5289  -4.3795  -4.3602  -4.0014
    -2.3454  -1.6064  -1.4494  -1.4354  -1.4062  -1.3904  -1.3784  -1.3495
    -1.3400  -1.3233  -1.2921  -1.2353   0.6280   0.7510   0.9866   1.1751
     1.2307   1.3934   1.4880   1.5508   1.5981   1.7114

          k = 0.1667-0.4811 0.0000 ( 59291 PWs)   bands (ev):

   -72.4719 -72.4716 -43.9366 -43.9364 -43.9322 -43.9318 -43.9265 -43.9263
   -21.1399 -20.9341 -20.7451 -20.1833 -19.8270 -19.4886 -19.3401 -19.1970
   -19.0367 -18.8005 -18.6661 -18.5652 -18.1726 -18.1099 -17.9442 -17.7463
   -12.3712 -12.1360 -12.0657 -11.9283 -11.7035 -11.6787 -11.5747 -10.9634
   -10.9127 -10.6462 -10.5445  -9.8826  -9.7155  -9.3579  -9.1329  -8.6915
    -8.6451  -8.5758  -8.4106  -8.3885  -8.1832  -8.1472  -8.0866  -8.0704
    -7.7111  -7.6451  -7.5170  -7.4951  -7.3794  -7.1927  -7.0894  -6.8838
    -6.6440  -6.4109  -6.2004  -6.1797  -5.9963  -5.9510  -5.8057  -5.7664
    -5.4732  -5.4197  -5.2353  -5.0618  -4.4676  -4.3680  -4.1115  -3.7894
    -2.3374  -1.6121  -1.4469  -1.4354  -1.4056  -1.3879  -1.3832  -1.3492
    -1.3399  -1.3233  -1.2920  -1.2355   0.6071   0.6348   1.0170   1.0398
     1.1586   1.2720   1.4054   1.7790   1.8454   1.9012

          k = 0.1667-0.0962 0.0000 ( 59226 PWs)   bands (ev):

   -72.4719 -72.4716 -43.9366 -43.9364 -43.9322 -43.9318 -43.9265 -43.9262
   -21.3361 -20.5590 -20.3674 -20.3611 -20.0127 -20.0018 -19.8273 -18.7541
   -18.7439 -18.3977 -18.3920 -18.3781 -18.2886 -18.2847 -18.0986 -18.0935
   -12.5284 -12.5256 -12.4301 -11.6034 -11.5984 -11.4468 -11.4435 -10.9479
   -10.9458  -9.9515  -9.9480  -9.6981  -9.3984  -9.3935  -9.2519  -9.2496
    -9.0637  -9.0625  -8.9467  -8.3459  -8.3430  -7.9234  -7.9210  -7.9058
    -7.8674  -7.7922  -7.6273  -7.6102  -7.1512  -7.1207  -6.9814  -6.9106
    -6.9065  -6.8724  -6.5533  -6.5500  -6.2794  -5.3694  -5.3453  -5.1652
    -5.0872  -4.8327  -4.8195  -4.7758  -4.6410  -4.6218  -4.3695  -4.3578
    -2.3534  -1.6005  -1.4517  -1.4356  -1.4067  -1.3946  -1.3741  -1.3498
    -1.3401  -1.3233  -1.2922  -1.2351   0.6445   0.8609   0.9561   1.1988
     1.2883   1.3163   1.4002   1.5576   1.6172   1.6716

          k =-0.5000-0.8660 0.0000 ( 59292 PWs)   bands (ev):

   -72.4719 -72.4716 -43.9366 -43.9364 -43.9322 -43.9318 -43.9265 -43.9262
   -21.0792 -21.0627 -20.4920 -20.4859 -19.4492 -19.4424 -19.4369 -19.4319
   -19.0192 -19.0064 -18.3534 -18.3491 -18.3331 -18.3301 -17.8161 -17.8103
   -12.0964 -12.0937 -12.0808 -12.0777 -11.9011 -11.8942 -11.3552 -11.3455
   -10.2591 -10.2527 -10.1552 -10.1539 -10.1510 -10.1497  -8.6087  -8.5793
    -8.5726  -8.5684  -8.5610  -8.5594  -7.8880  -7.8850  -7.8810  -7.8801
    -7.8429  -7.8412  -7.7975  -7.7840  -7.5164  -7.5036  -6.6352  -6.6285
    -6.3814  -6.3517  -6.3328  -6.3170  -6.2150  -6.2059  -5.7367  -5.7164
    -5.5718  -5.5594  -4.7533  -4.7420  -4.7237  -4.7060  -3.9062  -3.8924
    -2.2292  -1.7785  -1.4384  -1.4242  -1.3904  -1.3838  -1.3826  -1.3539
    -1.3438  -1.3412  -1.3334  -1.2984   0.9062   1.0134   1.0708   1.2065
     1.3193   1.3661   1.4657   1.5897   1.6300   1.6428

          k =-0.1667 0.2887 0.0000 ( 59267 PWs)   bands (ev):

   -72.4719 -72.4716 -43.9366 -43.9364 -43.9322 -43.9318 -43.9265 -43.9263
   -21.2697 -20.6881 -20.6732 -20.1263 -20.1196 -19.6148 -19.6002 -19.1220
   -18.7252 -18.7098 -18.4786 -18.4742 -18.2178 -18.1090 -18.0975 -17.8720
   -12.5068 -12.2274 -12.2248 -11.8438 -11.8382 -11.6802 -11.2176 -11.2076
   -10.4135 -10.3902 -10.1422 -10.1340  -9.6127  -9.6086  -8.8590  -8.8494
    -8.8451  -8.7921  -8.7793  -8.6183  -8.2188  -8.0727  -8.0413  -7.8514
    -7.8488  -7.4623  -7.4580  -7.3134  -7.2724  -7.2321  -7.2263  -6.9813
    -6.9781  -6.5891  -6.5602  -6.1764  -6.1741  -5.8943  -5.4406  -5.3224
    -5.2935  -5.2220  -4.9408  -4.9175  -4.5289  -4.3794  -4.3602  -4.0014
    -2.3454  -1.6064  -1.4494  -1.4354  -1.4062  -1.3904  -1.3784  -1.3495
    -1.3400  -1.3233  -1.2921  -1.2353   0.6280   0.7510   0.9866   1.1750
     1.2308   1.3934   1.4879   1.5505   1.5981   1.7112

          k = 0.3333 0.0000 0.0000 ( 59267 PWs)   bands (ev):

   -72.4719 -72.4716 -43.9366 -43.9364 -43.9322 -43.9318 -43.9265 -43.9263
   -21.2693 -20.7105 -20.6506 -20.1342 -20.1099 -19.6381 -19.5791 -19.1244
   -18.7394 -18.6899 -18.4891 -18.4652 -18.2139 -18.1316 -18.0820 -17.8709
   -12.5049 -12.2361 -12.2173 -11.8534 -11.8315 -11.6786 -11.2319 -11.1924
   -10.4140 -10.3887 -10.1551 -10.1228  -9.6177  -9.6018  -8.8602  -8.8527
    -8.8360  -8.8125  -8.7615  -8.6191  -8.2209  -8.1275  -7.9856  -7.8518
    -7.8461  -7.4676  -7.4517  -7.3232  -7.2578  -7.2404  -7.2177  -6.9907
    -6.9707  -6.6432  -6.5136  -6.1790  -6.1707  -5.9007  -5.4404  -5.3402
    -5.2648  -5.2224  -4.9555  -4.9044  -4.5219  -4.4112  -4.3403  -4.0002
    -2.2829  -1.7034  -1.4435  -1.4286  -1.3972  -1.3911  -1.3765  -1.3491
    -1.3444  -1.3352  -1.3131  -1.2908   0.9051   1.0083   1.1091   1.1329
     1.2751   1.3826   1.4387   1.4964   1.5365   1.5983

          k =-0.1667-0.4811 0.0000 ( 59291 PWs)   bands (ev):

   -72.4719 -72.4716 -43.9366 -43.9364 -43.9322 -43.9318 -43.9265 -43.9263
   -21.1399 -20.9341 -20.7451 -20.1833 -19.8270 -19.4886 -19.3401 -19.1970
   -19.0367 -18.8005 -18.6661 -18.5652 -18.1726 -18.1099 -17.9442 -17.7463
   -12.3712 -12.1360 -12.0657 -11.9283 -11.7035 -11.6787 -11.5747 -10.9634
   -10.9127 -10.6462 -10.5444  -9.8825  -9.7155  -9.3580  -9.1329  -8.6915
    -8.6450  -8.5759  -8.4105  -8.3885  -8.1832  -8.1472  -8.0867  -8.0704
    -7.7111  -7.6452  -7.5169  -7.4951  -7.3794  -7.1927  -7.0894  -6.8838
    -6.6441  -6.4109  -6.2004  -6.1797  -5.9963  -5.9510  -5.8057  -5.7664
    -5.4733  -5.4197  -5.2353  -5.0618  -4.4676  -4.3680  -4.1115  -3.7894
    -2.3374  -1.6121  -1.4469  -1.4354  -1.4056  -1.3879  -1.3832  -1.3492
    -1.3399  -1.3233  -1.2920  -1.2355   0.6071   0.6348   1.0170   1.0398
     1.1586   1.2720   1.4054   1.7790   1.8454   1.9025

          k = 0.5000-0.0962 0.0000 ( 59291 PWs)   bands (ev):

   -72.4719 -72.4716 -43.9366 -43.9364 -43.9322 -43.9318 -43.9265 -43.9263
   -21.1368 -20.9425 -20.7397 -20.1816 -19.8265 -19.4913 -19.3462 -19.1912
   -19.0385 -18.8022 -18.6538 -18.5718 -18.1611 -18.1270 -17.9407 -17.7458
   -12.3684 -12.1371 -12.0640 -11.9332 -11.7162 -11.6646 -11.5763 -10.9648
   -10.9095 -10.6436 -10.5476  -9.8806  -9.7157  -9.3587  -9.1323  -8.6795
    -8.6460  -8.5728  -8.4248  -8.4140  -8.1812  -8.1248  -8.0994  -8.0585
    -7.7065  -7.6457  -7.5161  -7.4962  -7.3738  -7.1943  -7.0906  -6.8821
    -6.6448  -6.4195  -6.2198  -6.1790  -5.9784  -5.9506  -5.8048  -5.7714
    -5.4743  -5.4210  -5.2081  -5.0774  -4.4462  -4.3981  -4.1059  -3.7888
    -2.2293  -1.7783  -1.4383  -1.4243  -1.3922  -1.3848  -1.3806  -1.3539
    -1.3439  -1.3412  -1.3334  -1.2984   0.8661   1.0003   1.0806   1.1614
     1.2828   1.3506   1.4034   1.5017   1.6232   1.7797

          k =-0.3333-0.3849 0.0000 ( 59291 PWs)   bands (ev):

   -72.4719 -72.4716 -43.9366 -43.9364 -43.9322 -43.9318 -43.9265 -43.9263
   -21.1379 -20.9395 -20.7418 -20.1812 -19.8290 -19.4890 -19.3404 -19.1955
   -19.0417 -18.7997 -18.6553 -18.5715 -18.1633 -18.1240 -17.9409 -17.7461
   -12.3704 -12.1333 -12.0671 -11.9306 -11.7050 -11.6775 -11.5758 -10.9644
   -10.9100 -10.6432 -10.5476  -9.8805  -9.7157  -9.3590  -9.1337  -8.6835
    -8.6442  -8.5750  -8.4140  -8.4091  -8.1824  -8.1331  -8.0870  -8.0728
    -7.7068  -7.6443  -7.5225  -7.4900  -7.3724  -7.1942  -7.0914  -6.8904
    -6.6424  -6.4116  -6.2028  -6.1817  -5.9916  -5.9493  -5.8050  -5.7808
    -5.4743  -5.4143  -5.2086  -5.0792  -4.4483  -4.3952  -4.1057  -3.7890
    -2.2728  -1.7122  -1.4417  -1.4283  -1.3958  -1.3877  -1.3820  -1.3491
    -1.3447  -1.3350  -1.3128  -1.2908   0.7684   0.9754   1.0203   1.1023
     1.1988   1.2617   1.3799   1.5819   1.6900   1.8536

          k = 0.5000 0.0962 0.0000 ( 59291 PWs)   bands (ev):

   -72.4719 -72.4716 -43.9366 -43.9364 -43.9322 -43.9318 -43.9265 -43.9263
   -21.1368 -20.9425 -20.7397 -20.1816 -19.8265 -19.4913 -19.3462 -19.1912
   -19.0385 -18.8022 -18.6538 -18.5718 -18.1611 -18.1270 -17.9407 -17.7458
   -12.3684 -12.1371 -12.0640 -11.9332 -11.7162 -11.6645 -11.5763 -10.9647
   -10.9095 -10.6436 -10.5476  -9.8807  -9.7157  -9.3587  -9.1322  -8.6795
    -8.6460  -8.5729  -8.4248  -8.4140  -8.1812  -8.1248  -8.0994  -8.0585
    -7.7066  -7.6456  -7.5162  -7.4963  -7.3738  -7.1943  -7.0905  -6.8821
    -6.6447  -6.4195  -6.2198  -6.1789  -5.9784  -5.9506  -5.8049  -5.7714
    -5.4744  -5.4210  -5.2081  -5.0773  -4.4462  -4.3981  -4.1059  -3.7888
    -2.2293  -1.7783  -1.4383  -1.4243  -1.3922  -1.3848  -1.3806  -1.3539
    -1.3439  -1.3412  -1.3334  -1.2984   0.8661   1.0003   1.0806   1.1614
     1.2828   1.3506   1.4033   1.5018   1.6231   1.7794

          k =-0.3333 0.3849 0.0000 ( 59291 PWs)   bands (ev):

   -72.4719 -72.4716 -43.9366 -43.9364 -43.9322 -43.9318 -43.9265 -43.9263
   -21.1379 -20.9395 -20.7418 -20.1812 -19.8290 -19.4890 -19.3404 -19.1955
   -19.0416 -18.7997 -18.6553 -18.5715 -18.1633 -18.1240 -17.9409 -17.7461
   -12.3704 -12.1334 -12.0672 -11.9306 -11.7050 -11.6776 -11.5758 -10.9645
   -10.9100 -10.6432 -10.5476  -9.8805  -9.7157  -9.3590  -9.1337  -8.6835
    -8.6443  -8.5749  -8.4141  -8.4091  -8.1825  -8.1332  -8.0870  -8.0728
    -7.7067  -7.6443  -7.5225  -7.4899  -7.3724  -7.1941  -7.0914  -6.8904
    -6.6425  -6.4116  -6.2028  -6.1818  -5.9916  -5.9494  -5.8049  -5.7808
    -5.4742  -5.4143  -5.2086  -5.0792  -4.4484  -4.3952  -4.1057  -3.7890
    -2.2728  -1.7122  -1.4417  -1.4283  -1.3958  -1.3877  -1.3820  -1.3491
    -1.3447  -1.3350  -1.3128  -1.2908   0.7684   0.9754   1.0203   1.1023
     1.1988   1.2617   1.3800   1.5819   1.6901   1.8536

          k =-0.1667-0.0962 0.0000 ( 59226 PWs)   bands (ev):

   -72.4719 -72.4716 -43.9366 -43.9364 -43.9322 -43.9318 -43.9265 -43.9262
   -21.3361 -20.5590 -20.3674 -20.3612 -20.0127 -20.0018 -19.8273 -18.7541
   -18.7439 -18.3977 -18.3920 -18.3781 -18.2887 -18.2847 -18.0986 -18.0935
   -12.5284 -12.5256 -12.4301 -11.6034 -11.5983 -11.4469 -11.4435 -10.9479
   -10.9458  -9.9516  -9.9480  -9.6981  -9.3984  -9.3934  -9.2519  -9.2496
    -9.0637  -9.0625  -8.9467  -8.3459  -8.3430  -7.9234  -7.9210  -7.9058
    -7.8673  -7.7923  -7.6273  -7.6102  -7.1512  -7.1207  -6.9815  -6.9106
    -6.9064  -6.8724  -6.5533  -6.5499  -6.2794  -5.3694  -5.3453  -5.1651
    -5.0873  -4.8326  -4.8194  -4.7759  -4.6410  -4.6218  -4.3695  -4.3578
    -2.3534  -1.6005  -1.4517  -1.4356  -1.4067  -1.3946  -1.3741  -1.3498
    -1.3401  -1.3233  -1.2922  -1.2351   0.6445   0.8609   0.9561   1.1988
     1.2883   1.3163   1.4002   1.5576   1.6171   1.6716

          k =-0.0000-0.1925 0.0000 ( 59226 PWs)   bands (ev):

   -72.4719 -72.4716 -43.9366 -43.9364 -43.9322 -43.9318 -43.9265 -43.9262
   -21.3362 -20.5536 -20.3763 -20.3619 -20.0089 -19.9976 -19.8311 -18.7527
   -18.7410 -18.4275 -18.3855 -18.3748 -18.2767 -18.2751 -18.1039 -18.0939
   -12.5367 -12.5180 -12.4294 -11.6056 -11.5962 -11.4544 -11.4344 -10.9502
   -10.9451  -9.9503  -9.9500  -9.6975  -9.4011  -9.3884  -9.2525  -9.2514
    -9.0643  -9.0616  -8.9473  -8.3447  -8.3443  -7.9241  -7.9187  -7.8838
    -7.8663  -7.7942  -7.6738  -7.6000  -7.1451  -7.0987  -6.9801  -6.9114
    -6.9071  -6.8865  -6.5537  -6.5487  -6.2800  -5.3746  -5.3290  -5.1654
    -5.0871  -4.8839  -4.8045  -4.7766  -4.6179  -4.6080  -4.3849  -4.3530
    -2.3782  -1.5657  -1.4544  -1.4386  -1.4106  -1.3936  -1.3749  -1.3515
    -1.3365  -1.3187  -1.2876  -1.1858   0.4782   0.7914   0.9247   1.1709
     1.2426   1.3862   1.3937   1.5864   1.6465   1.7655

          k = 0.5000-0.8660 0.0000 ( 59292 PWs)   bands (ev):

   -72.4719 -72.4716 -43.9366 -43.9364 -43.9322 -43.9318 -43.9265 -43.9262
   -21.0792 -21.0627 -20.4920 -20.4859 -19.4493 -19.4424 -19.4369 -19.4319
   -19.0192 -19.0064 -18.3534 -18.3491 -18.3332 -18.3301 -17.8161 -17.8103
   -12.0964 -12.0936 -12.0809 -12.0778 -11.9010 -11.8942 -11.3551 -11.3455
   -10.2592 -10.2527 -10.1552 -10.1539 -10.1510 -10.1497  -8.6087  -8.5792
    -8.5725  -8.5683  -8.5610  -8.5595  -7.8880  -7.8850  -7.8809  -7.8801
    -7.8430  -7.8412  -7.7975  -7.7840  -7.5164  -7.5036  -6.6351  -6.6285
    -6.3814  -6.3517  -6.3328  -6.3170  -6.2149  -6.2059  -5.7367  -5.7164
    -5.5719  -5.5595  -4.7533  -4.7420  -4.7237  -4.7060  -3.9062  -3.8924
    -2.2292  -1.7785  -1.4384  -1.4242  -1.3904  -1.3838  -1.3826  -1.3539
    -1.3438  -1.3412  -1.3334  -1.2984   0.9062   1.0134   1.0708   1.2065
     1.3192   1.3661   1.4658   1.5896   1.6299   1.6427

          k =-1.0000 0.0000 0.0000 ( 59292 PWs)   bands (ev):

   -72.4719 -72.4716 -43.9366 -43.9364 -43.9322 -43.9318 -43.9265 -43.9262
   -21.0997 -21.0392 -20.4984 -20.4847 -19.4538 -19.4475 -19.4349 -19.4177
   -19.0377 -18.9896 -18.4078 -18.3373 -18.3225 -18.2989 -17.8191 -17.8095
   -12.1387 -12.0884 -12.0674 -12.0518 -11.9027 -11.8918 -11.3722 -11.3292
   -10.2648 -10.2640 -10.1546 -10.1521 -10.1447 -10.1446  -8.6565  -8.6034
    -8.5730  -8.5512  -8.5360  -8.5111  -7.9021  -7.8903  -7.8822  -7.8812
    -7.8463  -7.8334  -7.8192  -7.7669  -7.5375  -7.4851  -6.6329  -6.6272
    -6.3987  -6.3430  -6.3314  -6.2871  -6.2321  -6.1919  -5.7682  -5.6936
    -5.5901  -5.5417  -4.8500  -4.7193  -4.7005  -4.6582  -3.9133  -3.8890
    -2.3634  -1.5752  -1.4488  -1.4386  -1.4092  -1.3875  -1.3839  -1.3506
    -1.3360  -1.3188  -1.2874  -1.1866   0.4595   0.5646   1.0275   1.0554
     1.1199   1.5141   1.5903   1.5997   1.6154   1.9150

 ------ SPIN DOWN ----------


          k = 0.1667 0.2887 0.0000 ( 59267 PWs)   bands (ev):

   -68.1009 -68.1005 -39.6032 -39.6029 -39.5938 -39.5933 -39.5905 -39.5902
   -21.2623 -20.6802 -20.6669 -20.1189 -20.1127 -19.6071 -19.5940 -19.1147
   -18.7159 -18.7028 -18.4713 -18.4672 -18.2091 -18.1020 -18.0920 -17.8646
   -12.5017 -12.2222 -12.2200 -11.8392 -11.8340 -11.6760 -11.2123 -11.2030
   -10.4083 -10.3851 -10.1366 -10.1293  -9.6077  -9.6039  -8.8437  -8.8395
    -8.8314  -8.7871  -8.7753  -8.6138  -8.2145  -8.0445  -8.0203  -7.8467
    -7.8444  -7.4561  -7.4525  -7.2823  -7.2565  -7.2274  -7.2221  -6.9767
    -6.9737  -6.5645  -6.5418  -6.1716  -6.1695  -5.8714  -5.4351  -5.2930
    -5.2734  -5.2172  -4.9168  -4.9011  -4.5049  -4.3591  -4.3454  -3.9819
    -0.2758   0.6764   1.0468   1.1904   1.3404   1.3818   1.4358   1.5313
     1.5542   1.8158   1.9100   2.1114   2.1889   2.2507   2.3059   2.3745
     2.4493   2.4961   2.5217   2.6014   2.6164   2.6464

          k = 0.1667-0.4811 0.0000 ( 59291 PWs)   bands (ev):

   -68.1009 -68.1005 -39.6032 -39.6029 -39.5938 -39.5933 -39.5905 -39.5902
   -21.1318 -20.9281 -20.7378 -20.1759 -19.8199 -19.4816 -19.3329 -19.1895
   -19.0296 -18.7937 -18.6557 -18.5599 -18.1622 -18.1062 -17.9367 -17.7388
   -12.3660 -12.1310 -12.0615 -11.9239 -11.6994 -11.6740 -11.5700 -10.9585
   -10.9071 -10.6404 -10.5401  -9.8768  -9.7107  -9.3527  -9.1281  -8.6591
    -8.6402  -8.5701  -8.4063  -8.3721  -8.1786  -8.1210  -8.0817  -8.0663
    -7.7058  -7.6406  -7.5120  -7.4912  -7.3537  -7.1875  -7.0850  -6.8609
    -6.6384  -6.3892  -6.1779  -6.1750  -5.9729  -5.9453  -5.8008  -5.7457
    -5.4686  -5.3984  -5.2024  -5.0488  -4.4383  -4.3585  -4.0912  -3.7700
    -0.2385   0.6503   1.0058   1.0939   1.1353   1.2911   1.3326   1.7523
     1.8557   1.8910   2.0354   2.1035   2.2290   2.2801   2.3025   2.3542
     2.4268   2.4869   2.5154   2.5334   2.5461   2.6431

          k = 0.1667-0.0962 0.0000 ( 59226 PWs)   bands (ev):

   -68.1009 -68.1005 -39.6032 -39.6029 -39.5938 -39.5933 -39.5905 -39.5902
   -21.3288 -20.5507 -20.3606 -20.3551 -20.0041 -19.9951 -19.8214 -18.7450
   -18.7365 -18.3893 -18.3846 -18.3707 -18.2812 -18.2775 -18.0921 -18.0875
   -12.5232 -12.5210 -12.4253 -11.5986 -11.5941 -11.4420 -11.4388 -10.9429
   -10.9411  -9.9464  -9.9433  -9.6927  -9.3932  -9.3886  -9.2466  -9.2445
    -9.0590  -9.0580  -8.9203  -8.3402  -8.3376  -7.9186  -7.9166  -7.8751
    -7.8596  -7.7879  -7.6044  -7.5930  -7.1206  -7.1003  -6.9765  -6.9059
    -6.9024  -6.8570  -6.5485  -6.5455  -6.2748  -5.3401  -5.3235  -5.1601
    -5.0822  -4.8081  -4.7978  -4.7555  -4.6187  -4.6049  -4.3505  -4.3410
    -0.3101   0.7065   1.0572   1.0973   1.2455   1.4551   1.5043   1.5586
     1.7984   1.8729   1.9790   2.0308   2.0771   2.1642   2.2967   2.3776
     2.4438   2.4663   2.5130   2.5794   2.6163   2.6462

          k =-0.5000-0.8660 0.0000 ( 59292 PWs)   bands (ev):

   -68.1009 -68.1005 -39.6032 -39.6029 -39.5939 -39.5933 -39.5905 -39.5902
   -21.0709 -21.0562 -20.4851 -20.4795 -19.4406 -19.4345 -19.4301 -19.4252
   -19.0116 -19.0003 -18.3448 -18.3406 -18.3266 -18.3239 -17.8087 -17.8033
   -12.0906 -12.0885 -12.0764 -12.0736 -11.8965 -11.8903 -11.3500 -11.3409
   -10.2536 -10.2480 -10.1500 -10.1489 -10.1458 -10.1449  -8.5772  -8.5707
    -8.5671  -8.5568  -8.5552  -8.5485  -7.8824  -7.8802  -7.8765  -7.8758
    -7.8377  -7.8358  -7.7749  -7.7641  -7.5116  -7.4998  -6.6297  -6.6239
    -6.3441  -6.3247  -6.3138  -6.3018  -6.2096  -6.2011  -5.7142  -5.6988
    -5.5664  -5.5551  -4.7277  -4.7185  -4.7041  -4.6906  -3.8858  -3.8749
    -0.1016   0.2794   1.0309   1.0503   1.4069   1.4539   1.4948   1.5327
     1.7851   1.7906   2.0566   2.0651   2.1914   2.2935   2.3651   2.3713
     2.4337   2.4422   2.5059   2.5308   2.5853   2.6717

          k =-0.1667 0.2887 0.0000 ( 59267 PWs)   bands (ev):

   -68.1009 -68.1005 -39.6032 -39.6029 -39.5938 -39.5933 -39.5905 -39.5902
   -21.2623 -20.6802 -20.6669 -20.1189 -20.1126 -19.6070 -19.5940 -19.1147
   -18.7158 -18.7028 -18.4713 -18.4672 -18.2091 -18.1020 -18.0920 -17.8646
   -12.5017 -12.2222 -12.2200 -11.8392 -11.8340 -11.6761 -11.2123 -11.2030
   -10.4083 -10.3850 -10.1366 -10.1293  -9.6076  -9.6039  -8.8437  -8.8395
    -8.8314  -8.7871  -8.7754  -8.6138  -8.2145  -8.0445  -8.0203  -7.8467
    -7.8444  -7.4562  -7.4524  -7.2823  -7.2565  -7.2273  -7.2221  -6.9768
    -6.9738  -6.5645  -6.5418  -6.1715  -6.1695  -5.8714  -5.4352  -5.2930
    -5.2734  -5.2171  -4.9168  -4.9010  -4.5049  -4.3591  -4.3454  -3.9819
    -0.2758   0.6765   1.0468   1.1904   1.3404   1.3818   1.4358   1.5313
     1.5541   1.8157   1.9102   2.1114   2.1889   2.2507   2.3057   2.3745
     2.4493   2.4963   2.5214   2.6013   2.6166   2.6464

          k = 0.3333 0.0000 0.0000 ( 59267 PWs)   bands (ev):

   -68.1009 -68.1005 -39.6032 -39.6029 -39.5939 -39.5933 -39.5905 -39.5902
   -21.2620 -20.6993 -20.6477 -20.1255 -20.1048 -19.6266 -19.5761 -19.1165
   -18.7279 -18.6867 -18.4798 -18.4597 -18.2062 -18.1203 -18.0788 -17.8639
   -12.5004 -12.2293 -12.2137 -11.8476 -11.8280 -11.6747 -11.2255 -11.1892
   -10.4086 -10.3840 -10.1474 -10.1198  -9.6120  -9.5982  -8.8467  -8.8392
    -8.8257  -8.8049  -8.7594  -8.6144  -8.2162  -8.0847  -7.9798  -7.8471
    -7.8421  -7.4605  -7.4475  -7.2900  -7.2458  -7.2347  -7.2145  -6.9846
    -6.9674  -6.6033  -6.5073  -6.1738  -6.1665  -5.8751  -5.4351  -5.3068
    -5.2534  -5.2174  -4.9282  -4.8907  -4.5005  -4.3818  -4.3300  -3.9810
    -0.2126   0.4539   1.0464   1.1754   1.3497   1.4604   1.4864   1.5372
     1.5815   1.7828   2.0803   2.1672   2.2300   2.2625   2.2757   2.3959
     2.4510   2.4620   2.5208   2.5645   2.5870   2.6113

          k =-0.1667-0.4811 0.0000 ( 59291 PWs)   bands (ev):

   -68.1009 -68.1005 -39.6032 -39.6029 -39.5938 -39.5933 -39.5905 -39.5902
   -21.1318 -20.9281 -20.7378 -20.1759 -19.8199 -19.4816 -19.3329 -19.1895
   -19.0296 -18.7937 -18.6557 -18.5599 -18.1622 -18.1061 -17.9367 -17.7388
   -12.3660 -12.1309 -12.0615 -11.9238 -11.6994 -11.6740 -11.5701 -10.9585
   -10.9071 -10.6404 -10.5401  -9.8768  -9.7107  -9.3528  -9.1281  -8.6591
    -8.6401  -8.5701  -8.4063  -8.3721  -8.1786  -8.1210  -8.0818  -8.0663
    -7.7058  -7.6407  -7.5119  -7.4912  -7.3537  -7.1875  -7.0850  -6.8609
    -6.6384  -6.3892  -6.1779  -6.1750  -5.9729  -5.9453  -5.8007  -5.7457
    -5.4686  -5.3984  -5.2024  -5.0488  -4.4383  -4.3585  -4.0912  -3.7700
    -0.2385   0.6503   1.0058   1.0939   1.1353   1.2912   1.3326   1.7523
     1.8556   1.8911   2.0354   2.1035   2.2290   2.2800   2.3025   2.3543
     2.4268   2.4869   2.5154   2.5335   2.5460   2.6430

          k = 0.5000-0.0962 0.0000 ( 59291 PWs)   bands (ev):

   -68.1009 -68.1005 -39.6032 -39.6029 -39.5939 -39.5933 -39.5905 -39.5902
   -21.1294 -20.9345 -20.7338 -20.1746 -19.8196 -19.4836 -19.3373 -19.1853
   -19.0309 -18.7949 -18.6469 -18.5647 -18.1532 -18.1190 -17.9344 -17.7385
   -12.3639 -12.1317 -12.0600 -11.9278 -11.7102 -11.6619 -11.5714 -10.9595
   -10.9046 -10.6385 -10.5426  -9.8753  -9.7109  -9.3534  -9.1277  -8.6527
    -8.6405  -8.5679  -8.4108  -8.3911  -8.1770  -8.1085  -8.0928  -8.0560
    -7.7022  -7.6410  -7.5113  -7.4921  -7.3503  -7.1887  -7.0858  -6.8600
    -6.6389  -6.3939  -6.1889  -6.1744  -5.9630  -5.9452  -5.8000  -5.7481
    -5.4695  -5.3993  -5.1869  -5.0577  -4.4240  -4.3775  -4.0884  -3.7697
    -0.1036   0.2855   1.0027   1.1028   1.1402   1.2972   1.5950   1.7513
     1.7833   2.0251   2.0654   2.1455   2.2161   2.2721   2.3228   2.3647
     2.4400   2.4750   2.5159   2.5595   2.5847   2.6329

          k =-0.3333-0.3849 0.0000 ( 59291 PWs)   bands (ev):

   -68.1009 -68.1005 -39.6032 -39.6029 -39.5938 -39.5933 -39.5905 -39.5902
   -21.1302 -20.9322 -20.7354 -20.1743 -19.8214 -19.4818 -19.3331 -19.1885
   -19.0332 -18.7931 -18.6479 -18.5645 -18.1548 -18.1169 -17.9344 -17.7386
   -12.3654 -12.1288 -12.0625 -11.9259 -11.7006 -11.6730 -11.5709 -10.9592
   -10.9050 -10.6381 -10.5426  -9.8752  -9.7110  -9.3536  -9.1287  -8.6545
    -8.6395  -8.5694  -8.4079  -8.3844  -8.1780  -8.1133  -8.0820  -8.0682
    -7.7024  -7.6399  -7.5167  -7.4869  -7.3495  -7.1887  -7.0864  -6.8647
    -6.6372  -6.3896  -6.1799  -6.1755  -5.9704  -5.9442  -5.8002  -5.7536
    -5.4694  -5.3957  -5.1873  -5.0585  -4.4255  -4.3756  -4.0882  -3.7699
    -0.1623   0.4052   1.0112   1.0656   1.1976   1.2646   1.4745   1.7766
     1.9263   1.9644   2.0452   2.0642   2.1786   2.2932   2.3357   2.3983
     2.4337   2.4614   2.4822   2.5668   2.5870   2.6155

          k = 0.5000 0.0962 0.0000 ( 59291 PWs)   bands (ev):

   -68.1009 -68.1005 -39.6032 -39.6029 -39.5939 -39.5933 -39.5905 -39.5902
   -21.1294 -20.9345 -20.7338 -20.1746 -19.8196 -19.4836 -19.3373 -19.1853
   -19.0309 -18.7949 -18.6469 -18.5647 -18.1532 -18.1191 -17.9343 -17.7384
   -12.3639 -12.1317 -12.0600 -11.9278 -11.7102 -11.6619 -11.5714 -10.9595
   -10.9046 -10.6385 -10.5426  -9.8753  -9.7110  -9.3533  -9.1276  -8.6527
    -8.6405  -8.5679  -8.4108  -8.3911  -8.1770  -8.1085  -8.0928  -8.0560
    -7.7022  -7.6410  -7.5113  -7.4922  -7.3503  -7.1887  -7.0858  -6.8600
    -6.6388  -6.3939  -6.1889  -6.1743  -5.9630  -5.9452  -5.8001  -5.7481
    -5.4695  -5.3994  -5.1869  -5.0577  -4.4240  -4.3775  -4.0884  -3.7697
    -0.1036   0.2854   1.0027   1.1029   1.1402   1.2971   1.5950   1.7513
     1.7833   2.0252   2.0654   2.1455   2.2161   2.2721   2.3229   2.3647
     2.4401   2.4750   2.5158   2.5596   2.5842   2.6323

          k =-0.3333 0.3849 0.0000 ( 59291 PWs)   bands (ev):

   -68.1009 -68.1005 -39.6032 -39.6029 -39.5938 -39.5933 -39.5905 -39.5902
   -21.1302 -20.9322 -20.7354 -20.1743 -19.8214 -19.4818 -19.3331 -19.1885
   -19.0332 -18.7932 -18.6479 -18.5645 -18.1548 -18.1169 -17.9345 -17.7386
   -12.3654 -12.1288 -12.0625 -11.9259 -11.7006 -11.6730 -11.5709 -10.9593
   -10.9050 -10.6381 -10.5426  -9.8753  -9.7109  -9.3535  -9.1287  -8.6545
    -8.6395  -8.5694  -8.4079  -8.3844  -8.1781  -8.1133  -8.0820  -8.0682
    -7.7024  -7.6399  -7.5167  -7.4868  -7.3496  -7.1886  -7.0865  -6.8647
    -6.6372  -6.3896  -6.1799  -6.1756  -5.9704  -5.9443  -5.8001  -5.7536
    -5.4693  -5.3957  -5.1873  -5.0585  -4.4255  -4.3756  -4.0882  -3.7699
    -0.1623   0.4053   1.0112   1.0656   1.1976   1.2646   1.4744   1.7766
     1.9262   1.9645   2.0452   2.0642   2.1785   2.2933   2.3356   2.3984
     2.4335   2.4617   2.4819   2.5670   2.5874   2.6159

          k =-0.1667-0.0962 0.0000 ( 59226 PWs)   bands (ev):

   -68.1009 -68.1005 -39.6032 -39.6029 -39.5938 -39.5933 -39.5905 -39.5902
   -21.3288 -20.5507 -20.3606 -20.3551 -20.0042 -19.9951 -19.8214 -18.7450
   -18.7365 -18.3893 -18.3846 -18.3707 -18.2813 -18.2775 -18.0921 -18.0875
   -12.5232 -12.5210 -12.4253 -11.5986 -11.5941 -11.4420 -11.4388 -10.9429
   -10.9411  -9.9465  -9.9433  -9.6927  -9.3932  -9.3886  -9.2466  -9.2445
    -9.0590  -9.0580  -8.9203  -8.3403  -8.3377  -7.9186  -7.9165  -7.8751
    -7.8596  -7.7879  -7.6044  -7.5930  -7.1206  -7.1003  -6.9766  -6.9058
    -6.9023  -6.8570  -6.5485  -6.5454  -6.2748  -5.3401  -5.3235  -5.1600
    -5.0823  -4.8081  -4.7978  -4.7555  -4.6187  -4.6048  -4.3505  -4.3410
    -0.3101   0.7064   1.0572   1.0973   1.2455   1.4551   1.5044   1.5586
     1.7984   1.8728   1.9791   2.0308   2.0771   2.1642   2.2967   2.3776
     2.4438   2.4663   2.5130   2.5793   2.6164   2.6459

          k =-0.0000-0.1925 0.0000 ( 59226 PWs)   bands (ev):

   -68.1009 -68.1005 -39.6032 -39.6029 -39.5938 -39.5933 -39.5905 -39.5902
   -21.3289 -20.5467 -20.3675 -20.3553 -20.0015 -19.9919 -19.8243 -18.7440
   -18.7345 -18.4122 -18.3781 -18.3692 -18.2732 -18.2696 -18.0958 -18.0879
   -12.5301 -12.5146 -12.4248 -11.6006 -11.5923 -11.4484 -11.4311 -10.9447
   -10.9406  -9.9454  -9.9448  -9.6923  -9.3959  -9.3843  -9.2466  -9.2462
    -9.0599  -9.0570  -8.9207  -8.3393  -8.3385  -7.9195  -7.9144  -7.8672
    -7.8549  -7.7894  -7.6318  -7.5861  -7.1183  -7.0866  -6.9755  -6.9065
    -6.9028  -6.8649  -6.5486  -6.5447  -6.2753  -5.3435  -5.3142  -5.1603
    -5.0821  -4.8418  -4.7857  -4.7554  -4.6078  -4.5942  -4.3591  -4.3384
    -0.3325   0.8480   1.0306   1.1502   1.2117   1.4230   1.4686   1.5490
     1.7507   1.8575   1.9306   1.9702   2.0233   2.1956   2.3250   2.3403
     2.4210   2.5110   2.5379   2.6199   2.6529   2.6672

          k = 0.5000-0.8660 0.0000 ( 59292 PWs)   bands (ev):

   -68.1009 -68.1005 -39.6032 -39.6029 -39.5939 -39.5933 -39.5905 -39.5902
   -21.0708 -21.0562 -20.4851 -20.4795 -19.4406 -19.4345 -19.4301 -19.4252
   -19.0115 -19.0003 -18.3448 -18.3405 -18.3267 -18.3239 -17.8087 -17.8033
   -12.0906 -12.0884 -12.0764 -12.0737 -11.8965 -11.8903 -11.3499 -11.3409
   -10.2537 -10.2480 -10.1499 -10.1489 -10.1458 -10.1449  -8.5772  -8.5706
    -8.5670  -8.5568  -8.5553  -8.5485  -7.8824  -7.8802  -7.8765  -7.8758
    -7.8378  -7.8359  -7.7749  -7.7641  -7.5117  -7.4998  -6.6296  -6.6238
    -6.3441  -6.3247  -6.3138  -6.3019  -6.2095  -6.2011  -5.7142  -5.6988
    -5.5665  -5.5552  -4.7277  -4.7185  -4.7041  -4.6906  -3.8859  -3.8749
    -0.1016   0.2794   1.0309   1.0503   1.4068   1.4538   1.4947   1.5327
     1.7850   1.7907   2.0564   2.0654   2.1914   2.2935   2.3649   2.3712
     2.4337   2.4421   2.5063   2.5311   2.5851   2.6713

          k =-1.0000 0.0000 0.0000 ( 59292 PWs)   bands (ev):

   -68.1009 -68.1005 -39.6032 -39.6029 -39.5938 -39.5934 -39.5905 -39.5902
   -21.0885 -21.0363 -20.4900 -20.4783 -19.4448 -19.4386 -19.4278 -19.4144
   -19.0266 -18.9864 -18.3898 -18.3313 -18.3172 -18.2982 -17.8105 -17.8030
   -12.1279 -12.0842 -12.0646 -12.0503 -11.8981 -11.8883 -11.3654 -11.3261
   -10.2578 -10.2571 -10.1492 -10.1476 -10.1410 -10.1407  -8.6134  -8.5951
    -8.5677  -8.5481  -8.5346  -8.5057  -7.8937  -7.8838  -7.8774  -7.8768
    -7.8313  -7.8301  -7.7935  -7.7538  -7.5301  -7.4833  -6.6275  -6.6234
    -6.3567  -6.3219  -6.3121  -6.2814  -6.2245  -6.1886  -5.7350  -5.6822
    -5.5822  -5.5397  -4.7992  -4.6990  -4.6879  -4.6566  -3.8894  -3.8733
    -0.2666   0.8027   1.0112   1.0833   1.2450   1.2950   1.4886   1.6008
     1.6083   1.7084   1.8843   2.1428   2.1640   2.2874   2.3171   2.3833
     2.4192   2.5295   2.5314   2.5937   2.6258   2.6467

     the Fermi energy is    -0.8507 ev

!    total energy              =   -1133.81302318 Ry

     total all-electron energy =     -6753.488726 Ry
     estimated scf accuracy    <       0.00000002 Ry
     smearing contrib. (-TS)   =      -0.00000000 Ry
     internal energy E=F+TS    =   -1133.81302318 Ry

     The total energy is F=E-TS. E is the sum of the following terms:
     one-electron contribution =   -3916.40518770 Ry
     hartree contribution      =    1986.80034489 Ry
     xc contribution           =    -186.20116194 Ry
     ewald contribution        =    1341.36074028 Ry
     DFT-D3 Dispersion         =      -0.13969502 Ry
     one-center paw contrib.   =    -359.22806369 Ry

     total magnetization       =    12.00 Bohr mag/cell
     absolute magnetization    =    12.00 Bohr mag/cell

     convergence has been achieved in  12 iterations

     Writing output data file ./mytmp/Crdimer0.22-0.1.save/
 
     init_run     :     17.92s CPU     19.19s WALL (       1 calls)
     electrons    :    452.65s CPU    492.06s WALL (       1 calls)

     Called by init_run:
     wfcinit      :     13.32s CPU     13.94s WALL (       1 calls)
     potinit      :      1.35s CPU      1.68s WALL (       1 calls)
     hinit0       :      1.50s CPU      1.60s WALL (       1 calls)

     Called by electrons:
     c_bands      :    369.33s CPU    401.47s WALL (      12 calls)
     sum_band     :     64.28s CPU     68.72s WALL (      12 calls)
     v_of_rho     :      3.94s CPU      4.30s WALL (      13 calls)
     newd         :      8.31s CPU     10.85s WALL (      13 calls)
     PAW_pot      :      6.21s CPU      6.42s WALL (      13 calls)
     mix_rho      :      0.82s CPU      0.84s WALL (      12 calls)

     Called by c_bands:
     init_us_2    :      4.35s CPU      4.39s WALL (     750 calls)
     cegterg      :    358.74s CPU    390.76s WALL (     360 calls)

     Called by *egterg:
     cdiaghg      :     23.47s CPU     38.45s WALL (    2493 calls)
     h_psi        :    228.71s CPU    242.75s WALL (    2523 calls)
     s_psi        :     24.90s CPU     25.23s WALL (    2523 calls)
     g_psi        :      0.68s CPU      0.70s WALL (    2133 calls)

     Called by h_psi:
     h_psi:calbec :     26.07s CPU     27.05s WALL (    2523 calls)
     vloc_psi     :    175.36s CPU    188.21s WALL (    2523 calls)
     add_vuspsi   :     25.32s CPU     25.50s WALL (    2523 calls)

     General routines
     calbec       :     34.04s CPU     35.19s WALL (    2883 calls)
     fft          :      3.48s CPU      4.12s WALL (     319 calls)
     ffts         :      0.10s CPU      0.10s WALL (      50 calls)
     fftw         :    178.95s CPU    191.81s WALL (  228224 calls)
     interpolate  :      0.35s CPU      0.39s WALL (      26 calls)
 
     Parallel routines
     fft_scatt_xy :     28.62s CPU     29.70s WALL (  228593 calls)
     fft_scatt_yz :     71.31s CPU     80.56s WALL (  228593 calls)
 
     PWSCF        :   7m52.60s CPU   8m35.32s WALL

 
   This run was terminated on:  21:12:14  29Mar2021            

=------------------------------------------------------------------------------=
   JOB DONE.
=------------------------------------------------------------------------------=
