
     Program PWSCF v.6.7MaX starts on 30Mar2021 at  0:29:57 

     This program is part of the open-source Quantum ESPRESSO suite
     for quantum simulation of materials; please cite
         "P. Giannozzi et al., J. Phys.:Condens. Matter 21 395502 (2009);
         "P. Giannozzi et al., J. Phys.:Condens. Matter 29 465901 (2017);
          URL http://www.quantum-espresso.org", 
     in publications or presentations arising from this work. More details at
     http://www.quantum-espresso.org/quote

     Parallel version (MPI), running on    48 processors

     MPI processes distributed on     1 nodes
     R & G space division:  proc/nbgrp/npool/nimage =      48
     Reading input from Crdimer0.3-0.1.scf.in

     Current dimensions of program PWSCF are:
     Max number of different atomic species (ntypx) = 10
     Max number of k-points (npk) =  40000
     Max angular momentum in pseudopotentials (lmaxx) =  3
     file N.pbe-n-kjpaw_psl.1.0.0.UPF: wavefunction(s)  2S renormalized
     file Cr.pbe-spn-kjpaw_psl.1.0.0.UPF: wavefunction(s)  3S 3P 3D renormalized
     file Cr.pbe-spn-kjpaw_psl.1.0.0.UPF: wavefunction(s)  3S 3P 3D renormalized

     --------------------------------------------
     Parameters for DFT-D3 Dispersion Correction:
     --------------------------------------------
       Reference C6 values for interpolation: 

         atom   Coordination number   C6
         B          0.000           214.36
         B          0.971           150.74
         B          1.944           106.23
         B          2.913            62.89
         B          4.586            56.06
         N          0.000            50.54
         N          0.994            44.25
         N          2.014            39.35
         N          2.990            31.16
         Cr1        0.000          1381.48
         Cr1        1.827           571.38
         Cr1       10.619           306.69
         Cr2        0.000          1381.48
         Cr2        1.827           571.38
         Cr2       10.619           306.69

       Values used:

         atom   Coordination number  R0_AB[au]  C6      C8
         B          3.349            3.039     62.88   2505.66
         B          3.336            3.039     62.89   2505.99
         B          3.337            3.039     62.89   2505.97
         B          3.344            3.039     62.89   2505.79
         B          3.340            3.039     62.89   2505.90
         B          3.336            3.039     62.89   2506.00
         N          3.136            2.478     31.22    688.68
         N          3.134            2.478     31.22    688.70
         N          3.140            2.478     31.22    688.64
         N          3.157            2.478     31.21    688.50
         N          3.135            2.478     31.22    688.69
         N          3.134            2.478     31.22    688.70
         N          3.138            2.478     31.22    688.66
         N          3.135            2.478     31.22    688.68
         N          3.134            2.478     31.22    688.69
         B          3.336            3.039     62.89   2506.00
         B          3.336            3.039     62.89   2505.99
         B          3.336            3.039     62.89   2506.00
         B          3.340            3.039     62.89   2505.90
         B          3.349            3.039     62.88   2505.66
         B          3.336            3.039     62.89   2506.00
         N          3.138            2.478     31.22    688.66
         B          3.336            3.039     62.89   2506.00
         B          3.335            3.039     62.89   2506.01
         B          3.361            3.039     62.87   2505.31
         N          3.134            2.478     31.22    688.70
         N          3.134            2.478     31.22    688.70
         N          3.136            2.478     31.22    688.68
         N          3.136            2.478     31.22    688.68
         N          3.140            2.478     31.22    688.64
         N          3.157            2.478     31.21    688.50
         B          3.361            3.039     62.87   2505.31
         Cr1        0.110            3.252   1381.48 127494.68
         Cr2        0.110            3.252   1381.48 127494.68

         Molecular C6 ( Ry / a.u.^6 ) =     79164.75


     Subspace diagonalization in iterative solution of the eigenvalue problem:
     one sub-group per band group will be used
     scalapack distributed-memory algorithm (size of sub-group:  6*  6 procs)

 
     Parallelization info
     --------------------
     sticks:   dense  smooth     PW     G-vecs:    dense   smooth      PW
     Min         235      98     26                36277     9874    1408
     Max         236      99     27                36282     9883    1425
     Sum       11311    4741   1285              1741401   474235   68095
 


     bravais-lattice index     =            4
     lattice parameter (alat)  =      18.9275  a.u.
     unit-cell volume          =   10553.3021 (a.u.)^3
     number of atoms/cell      =           34
     number of atomic types    =            4
     number of electrons       =       156.00
     number of Kohn-Sham states=           94
     kinetic-energy cutoff     =      48.0000  Ry
     charge density cutoff     =     457.0000  Ry
     scf convergence threshold =      1.0E-07
     mixing beta               =       0.5000
     number of iterations used =            8  plain     mixing
     Exchange-correlation= SLA  PW   PBX  PBC
                           (   1   4   3   4   0   0   0)

     celldm(1)=  18.927497  celldm(2)=   0.000000  celldm(3)=   1.797125
     celldm(4)=   0.000000  celldm(5)=   0.000000  celldm(6)=   0.000000

     crystal axes: (cart. coord. in units of alat)
               a(1) = (   1.000000   0.000000   0.000000 )  
               a(2) = (  -0.500000   0.866025   0.000000 )  
               a(3) = (   0.000000   0.000000   1.797125 )  

     reciprocal axes: (cart. coord. in units 2 pi/alat)
               b(1) = (  1.000000  0.577350  0.000000 )  
               b(2) = (  0.000000  1.154701  0.000000 )  
               b(3) = (  0.000000  0.000000  0.556444 )  


     PseudoPot. # 1 for B  read from file:
     /home/sf05/q-e-qe-6.7MaX-Release/pseudo/B.pbe-n-kjpaw_psl.1.0.0.UPF
     MD5 check sum: d9c678ba5d3b2fd7b74e61139c9288d8
     Pseudo is Projector augmented-wave + core cor, Zval =  3.0
     Generated using "atomic" code by A. Dal Corso  v.5.1.2
     Shape of augmentation charge: PSQ
     Using radial grid of 1059 points,  4 beta functions with: 
                l(1) =   0
                l(2) =   0
                l(3) =   1
                l(4) =   1
     Q(r) pseudized with 0 coefficients 


     PseudoPot. # 2 for N  read from file:
     /home/sf05/q-e-qe-6.7MaX-Release/pseudo/N.pbe-n-kjpaw_psl.1.0.0.UPF
     MD5 check sum: e0e4e94a9c4025c5b51bd7d8793849bd
     Pseudo is Projector augmented-wave + core cor, Zval =  5.0
     Generated using "atomic" code by A. Dal Corso  v.5.1.2
     Shape of augmentation charge: PSQ
     Using radial grid of 1085 points,  4 beta functions with: 
                l(1) =   0
                l(2) =   0
                l(3) =   1
                l(4) =   1
     Q(r) pseudized with 0 coefficients 


     PseudoPot. # 3 for Cr read from file:
     /home/sf05/q-e-qe-6.7MaX-Release/pseudo/Cr.pbe-spn-kjpaw_psl.1.0.0.UPF
     MD5 check sum: 198f1a2427a48552563eee314eba32ba
     Pseudo is Projector augmented-wave + core cor, Zval = 14.0
     Generated using &quot;atomic&quot; code by A. Dal Corso  v.6.3
     Shape of augmentation charge: PSQ
     Using radial grid of 1183 points,  6 beta functions with: 
                l(1) =   0
                l(2) =   0
                l(3) =   1
                l(4) =   1
                l(5) =   2
                l(6) =   2
     Q(r) pseudized with 0 coefficients 


     PseudoPot. # 4 for Cr read from file:
     /home/sf05/q-e-qe-6.7MaX-Release/pseudo/Cr.pbe-spn-kjpaw_psl.1.0.0.UPF
     MD5 check sum: 198f1a2427a48552563eee314eba32ba
     Pseudo is Projector augmented-wave + core cor, Zval = 14.0
     Generated using &quot;atomic&quot; code by A. Dal Corso  v.6.3
     Shape of augmentation charge: PSQ
     Using radial grid of 1183 points,  6 beta functions with: 
                l(1) =   0
                l(2) =   0
                l(3) =   1
                l(4) =   1
                l(5) =   2
                l(6) =   2
     Q(r) pseudized with 0 coefficients 


     atomic species   valence    mass     pseudopotential
        B              3.00    10.81100     B ( 1.00)
        N              5.00    14.00674     N ( 1.00)
        Cr1           14.00    51.99610     Cr( 1.00)
        Cr2           14.00    51.99610     Cr( 1.00)

     Starting magnetic structure 
     atomic species   magnetization
        B            0.000
        N            0.000
        Cr1          1.000
        Cr2          1.000

     No symmetry found



   Cartesian axes

     site n.     atom                  positions (alat units)
         1           B   tau(   1) = (  -0.1250000   0.2165064   0.8985623  )
         2           B   tau(   2) = (   0.3750000   0.6495191   0.8985623  )
         3           B   tau(   3) = (   0.2500000   0.0000000   0.8985623  )
         4           B   tau(   4) = (   0.7500000   0.0000000   0.8985623  )
         5           B   tau(   5) = (   0.1250000   0.2165064   0.8985623  )
         6           B   tau(   6) = (  -0.3750000   0.6495191   0.8985623  )
         7           N   tau(   7) = (   0.7500005   0.2886748   0.8985623  )
         8           N   tau(   8) = (   0.3750005   0.5051812   0.8985623  )
         9           N   tau(   9) = (   0.3750005   0.0721685   0.8985623  )
        10           N   tau(  10) = (   0.6250005   0.0721685   0.8985623  )
        11           N   tau(  11) = (   0.2500005   0.2886748   0.8985623  )
        12           N   tau(  12) = (   0.6250005   0.5051812   0.8985623  )
        13           N   tau(  13) = (   0.0000005   0.2886748   0.8985623  )
        14           N   tau(  14) = (   0.2500005   0.7216875   0.8985623  )
        15           N   tau(  15) = (  -0.2499995   0.7216875   0.8985623  )
        16           B   tau(  16) = (   0.0000000   0.4330127   0.8985623  )
        17           B   tau(  17) = (   0.1250000   0.6495191   0.8985623  )
        18           B   tau(  18) = (  -0.1250000   0.6495191   0.8985623  )
        19           B   tau(  19) = (   0.3750000   0.2165064   0.8985623  )
        20           B   tau(  20) = (   0.6250000   0.2165064   0.8985623  )
        21           B   tau(  21) = (   0.5000000   0.4330127   0.8985623  )
        22           N   tau(  22) = (   0.5000005   0.2886748   0.8985623  )
        23           B   tau(  23) = (  -0.2500000   0.4330127   0.8985623  )
        24           B   tau(  24) = (   0.2500000   0.4330127   0.8985623  )
        25           B   tau(  25) = (   0.5000000   0.0000000   0.8985623  )
        26           N   tau(  26) = (  -0.1249995   0.5051812   0.8985623  )
        27           N   tau(  27) = (   0.1250005   0.5051812   0.8985623  )
        28           N   tau(  28) = (   0.0000005   0.7216875   0.8985623  )
        29           N   tau(  29) = (   0.5000005   0.7216875   0.8985623  )
        30           N   tau(  30) = (   0.1250005   0.0721685   0.8985623  )
        31           N   tau(  31) = (   0.8750005   0.0721685   0.8985623  )
        32           B   tau(  32) = (   0.0000000   0.0000000   0.8985623  )
        33           Cr1 tau(  33) = (   0.5500000   0.0866025   1.2040735  )
        34           Cr2 tau(  34) = (  -0.0500000   0.0866025   1.2040735  )

     number of k points=    15  Gaussian smearing, width (Ry)=  0.0000
                       cart. coord. in units 2pi/alat
        k(    1) = (   0.1666667   0.2886751   0.0000000), wk =   0.0740741
        k(    2) = (   0.1666667  -0.4811252   0.0000000), wk =   0.0740741
        k(    3) = (   0.1666667  -0.0962250   0.0000000), wk =   0.0740741
        k(    4) = (  -0.5000000  -0.8660254   0.0000000), wk =   0.0370370
        k(    5) = (  -0.1666667   0.2886751   0.0000000), wk =   0.0740741
        k(    6) = (   0.3333333   0.0000000   0.0000000), wk =   0.0740741
        k(    7) = (  -0.1666667  -0.4811252   0.0000000), wk =   0.0740741
        k(    8) = (   0.5000000  -0.0962250   0.0000000), wk =   0.0740741
        k(    9) = (  -0.3333333  -0.3849002   0.0000000), wk =   0.0740741
        k(   10) = (   0.5000000   0.0962250   0.0000000), wk =   0.0740741
        k(   11) = (  -0.3333333   0.3849002   0.0000000), wk =   0.0740741
        k(   12) = (  -0.1666667  -0.0962250   0.0000000), wk =   0.0740741
        k(   13) = (  -0.0000000  -0.1924501   0.0000000), wk =   0.0740741
        k(   14) = (   0.5000000  -0.8660254   0.0000000), wk =   0.0370370
        k(   15) = (  -1.0000000   0.0000000   0.0000000), wk =   0.0370370

     Dense  grid:  1741401 G-vectors     FFT dimensions: ( 135, 135, 240)

     Smooth grid:   474235 G-vectors     FFT dimensions: (  90,  90, 160)

     Estimated max dynamical RAM per process >     218.62 MB

     Estimated total dynamical RAM >      10.25 GB
     Generating pointlists ...
     new r_m :   0.0595 (alat units)  1.1269 (a.u.) for type    1
     new r_m :   0.0595 (alat units)  1.1269 (a.u.) for type    2
     new r_m :   0.1299 (alat units)  2.4587 (a.u.) for type    3
     new r_m :   0.1299 (alat units)  2.4587 (a.u.) for type    4

     Initial potential from superposition of free atoms

     starting charge  155.99382, renormalised to  156.00000

     negative rho (up, down):  6.551E-03 4.655E-04
     Starting wfcs are  148 randomized atomic wfcs
     Checking if some PAW data can be deallocated... 

     total cpu time spent up to now is       20.5 secs

     Self-consistent Calculation

     iteration #  1     ecut=    48.00 Ry     beta= 0.50
     Davidson diagonalization with overlap
     ethr =  1.00E-02,  avg # of iterations =  2.9

     negative rho (up, down):  4.716E-03 2.917E-03

     total cpu time spent up to now is       63.8 secs

     total energy              =   -1130.76839218 Ry
     estimated scf accuracy    <      11.36741047 Ry

     total magnetization       =    12.00 Bohr mag/cell
     absolute magnetization    =    12.17 Bohr mag/cell

     iteration #  2     ecut=    48.00 Ry     beta= 0.50
     Davidson diagonalization with overlap
     ethr =  7.29E-03,  avg # of iterations =  2.7

     negative rho (up, down):  8.185E-03 8.152E-03

     total cpu time spent up to now is      104.2 secs

     total energy              =   -1132.89553845 Ry
     estimated scf accuracy    <       3.69376796 Ry

     total magnetization       =    10.89 Bohr mag/cell
     absolute magnetization    =    10.92 Bohr mag/cell

     iteration #  3     ecut=    48.00 Ry     beta= 0.50
     Davidson diagonalization with overlap
     ethr =  2.37E-03,  avg # of iterations =  6.4

     negative rho (up, down):  3.846E-03 4.282E-03

     total cpu time spent up to now is      144.9 secs

     total energy              =   -1133.58439313 Ry
     estimated scf accuracy    <       0.82189302 Ry

     total magnetization       =    12.00 Bohr mag/cell
     absolute magnetization    =    12.06 Bohr mag/cell

     iteration #  4     ecut=    48.00 Ry     beta= 0.50
     Davidson diagonalization with overlap
     ethr =  5.27E-04,  avg # of iterations =  6.9

     negative rho (up, down):  6.656E-03 1.106E-02

     total cpu time spent up to now is      185.0 secs

     total energy              =   -1133.80261867 Ry
     estimated scf accuracy    <       0.21493296 Ry

     total magnetization       =    12.00 Bohr mag/cell
     absolute magnetization    =    12.01 Bohr mag/cell

     iteration #  5     ecut=    48.00 Ry     beta= 0.50
     Davidson diagonalization with overlap
     ethr =  1.38E-04,  avg # of iterations =  9.0

     negative rho (up, down):  4.557E-03 8.844E-03

     total cpu time spent up to now is      226.9 secs

     total energy              =   -1133.80862255 Ry
     estimated scf accuracy    <       0.02438378 Ry

     total magnetization       =    12.00 Bohr mag/cell
     absolute magnetization    =    12.00 Bohr mag/cell

     iteration #  6     ecut=    48.00 Ry     beta= 0.50
     Davidson diagonalization with overlap
     c_bands:  2 eigenvalues not converged
     c_bands:  1 eigenvalues not converged
     c_bands:  2 eigenvalues not converged
     c_bands:  2 eigenvalues not converged
     ethr =  1.56E-05,  avg # of iterations = 12.9

     negative rho (up, down):  3.407E-03 7.949E-03

     total cpu time spent up to now is      280.8 secs

     total energy              =   -1133.81423968 Ry
     estimated scf accuracy    <       0.00096412 Ry

     total magnetization       =    12.00 Bohr mag/cell
     absolute magnetization    =    12.01 Bohr mag/cell

     iteration #  7     ecut=    48.00 Ry     beta= 0.50
     Davidson diagonalization with overlap
     c_bands:  1 eigenvalues not converged
     c_bands:  2 eigenvalues not converged
     c_bands:  3 eigenvalues not converged
     c_bands:  2 eigenvalues not converged
     c_bands:  2 eigenvalues not converged
     ethr =  6.18E-07,  avg # of iterations = 11.4

     negative rho (up, down):  3.011E-03 7.339E-03

     total cpu time spent up to now is      335.7 secs

     total energy              =   -1133.81515078 Ry
     estimated scf accuracy    <       0.00021563 Ry

     total magnetization       =    12.00 Bohr mag/cell
     absolute magnetization    =    12.00 Bohr mag/cell

     iteration #  8     ecut=    48.00 Ry     beta= 0.50
     Davidson diagonalization with overlap
     c_bands:  1 eigenvalues not converged
     c_bands:  1 eigenvalues not converged
     ethr =  1.38E-07,  avg # of iterations =  4.8

     negative rho (up, down):  2.882E-03 7.222E-03

     total cpu time spent up to now is      373.0 secs

     total energy              =   -1133.81550915 Ry
     estimated scf accuracy    <       0.00004755 Ry

     total magnetization       =    12.00 Bohr mag/cell
     absolute magnetization    =    12.00 Bohr mag/cell

     iteration #  9     ecut=    48.00 Ry     beta= 0.50
     Davidson diagonalization with overlap
     ethr =  3.05E-08,  avg # of iterations =  2.6

     negative rho (up, down):  2.841E-03 7.239E-03

     total cpu time spent up to now is      413.6 secs

     total energy              =   -1133.81571856 Ry
     estimated scf accuracy    <       0.00000775 Ry

     total magnetization       =    12.00 Bohr mag/cell
     absolute magnetization    =    12.00 Bohr mag/cell

     iteration # 10     ecut=    48.00 Ry     beta= 0.50
     Davidson diagonalization with overlap
     ethr =  4.97E-09,  avg # of iterations =  4.0

     negative rho (up, down):  2.830E-03 7.237E-03

     total cpu time spent up to now is      454.6 secs

     total energy              =   -1133.81575345 Ry
     estimated scf accuracy    <       0.00000292 Ry

     total magnetization       =    12.00 Bohr mag/cell
     absolute magnetization    =    12.00 Bohr mag/cell

     iteration # 11     ecut=    48.00 Ry     beta= 0.50
     Davidson diagonalization with overlap
     ethr =  1.87E-09,  avg # of iterations =  2.5

     negative rho (up, down):  2.827E-03 7.251E-03

     total cpu time spent up to now is      495.0 secs

     total energy              =   -1133.81579597 Ry
     estimated scf accuracy    <       0.00000024 Ry

     total magnetization       =    12.00 Bohr mag/cell
     absolute magnetization    =    12.00 Bohr mag/cell

     iteration # 12     ecut=    48.00 Ry     beta= 0.50
     Davidson diagonalization with overlap
     ethr =  1.54E-10,  avg # of iterations =  4.7

     negative rho (up, down):  2.825E-03 7.256E-03
 
     Magnetic moment per site:
     atom:    1    charge:    0.8805    magn:    0.0005    constr:    0.0000
     atom:    2    charge:    0.8803    magn:    0.0002    constr:    0.0000
     atom:    3    charge:    0.8803    magn:    0.0010    constr:    0.0000
     atom:    4    charge:    0.8804    magn:    0.0017    constr:    0.0000
     atom:    5    charge:    0.8803    magn:    0.0001    constr:    0.0000
     atom:    6    charge:    0.8803    magn:    0.0002    constr:    0.0000
     atom:    7    charge:    2.8608    magn:    0.0029    constr:    0.0000
     atom:    8    charge:    2.8609    magn:    0.0002    constr:    0.0000
     atom:    9    charge:    2.8606    magn:    0.0059    constr:    0.0000
     atom:   10    charge:    2.8607    magn:    0.0118    constr:    0.0000
     atom:   11    charge:    2.8610    magn:    0.0007    constr:    0.0000
     atom:   12    charge:    2.8609    magn:    0.0003    constr:    0.0000
     atom:   13    charge:    2.8597    magn:    0.0037    constr:    0.0000
     atom:   14    charge:    2.8598    magn:    0.0018    constr:    0.0000
     atom:   15    charge:    2.8598    magn:    0.0007    constr:    0.0000
     atom:   16    charge:    0.8800    magn:    0.0004    constr:    0.0000
     atom:   17    charge:    0.8800    magn:    0.0002    constr:    0.0000
     atom:   18    charge:    0.8800    magn:    0.0002    constr:    0.0000
     atom:   19    charge:    0.8797    magn:    0.0001    constr:    0.0000
     atom:   20    charge:    0.8799    magn:    0.0005    constr:    0.0000
     atom:   21    charge:    0.8798    magn:    0.0004    constr:    0.0000
     atom:   22    charge:    2.8610    magn:    0.0036    constr:    0.0000
     atom:   23    charge:    0.8799    magn:    0.0001    constr:    0.0000
     atom:   24    charge:    0.8799    magn:    0.0001    constr:    0.0000
     atom:   25    charge:    0.8803    magn:    0.0003    constr:    0.0000
     atom:   26    charge:    2.8598    magn:    0.0003    constr:    0.0000
     atom:   27    charge:    2.8598    magn:    0.0002    constr:    0.0000
     atom:   28    charge:    2.8596    magn:    0.0031    constr:    0.0000
     atom:   29    charge:    2.8595    magn:    0.0031    constr:    0.0000
     atom:   30    charge:    2.8593    magn:    0.0059    constr:    0.0000
     atom:   31    charge:    2.8594    magn:    0.0118    constr:    0.0000
     atom:   32    charge:    0.8806    magn:    0.0003    constr:    0.0000
     atom:   33    charge:   12.8318    magn:    4.8202    constr:    0.0000
     atom:   34    charge:   12.8318    magn:    4.8202    constr:    0.0000

     total cpu time spent up to now is      532.9 secs

     End of self-consistent calculation

 ------ SPIN UP ------------


          k = 0.1667 0.2887 0.0000 ( 59267 PWs)   bands (ev):

   -72.5096 -72.5095 -43.9745 -43.9737 -43.9697 -43.9691 -43.9614 -43.9612
   -21.2719 -20.6946 -20.6702 -20.1278 -20.1216 -19.6212 -19.5970 -19.1240
   -18.7317 -18.7072 -18.4798 -18.4759 -18.2203 -18.1123 -18.0960 -17.8732
   -12.5084 -12.2291 -12.2268 -11.8470 -11.8380 -11.6816 -11.2224 -11.2059
   -10.4151 -10.3918 -10.1463 -10.1328  -9.6157  -9.6089  -8.8626  -8.8509
    -8.8469  -8.7977  -8.7767  -8.6200  -8.2204  -8.0837  -8.0344  -7.8528
    -7.8506  -7.4651  -7.4583  -7.3135  -7.2765  -7.2355  -7.2259  -6.9825
    -6.9797  -6.6001  -6.5527  -6.1787  -6.1750  -5.8970  -5.4420  -5.3324
    -5.2888  -5.2236  -4.9404  -4.9206  -4.5325  -4.3823  -4.3578  -4.0027
    -2.5187  -1.5691  -1.5119  -1.5016  -1.4714  -1.4266  -1.4031  -1.3688
    -1.3434  -1.3362  -1.3029  -1.1855   0.5865   0.7140   0.9910   1.1648
     1.2340   1.3977   1.4941   1.5508   1.5943   1.7661

          k = 0.1667-0.4811 0.0000 ( 59291 PWs)   bands (ev):

   -72.5097 -72.5095 -43.9745 -43.9737 -43.9697 -43.9691 -43.9614 -43.9612
   -21.1423 -20.9362 -20.7462 -20.1850 -19.8289 -19.4905 -19.3427 -19.1980
   -19.0390 -18.8017 -18.6677 -18.5666 -18.1749 -18.1113 -17.9449 -17.7476
   -12.3728 -12.1381 -12.0672 -11.9300 -11.7077 -11.6777 -11.5761 -10.9652
   -10.9140 -10.6475 -10.5459  -9.8842  -9.7170  -9.3596  -9.1346  -8.6959
    -8.6472  -8.5771  -8.4125  -8.3915  -8.1844  -8.1472  -8.0905  -8.0698
    -7.7126  -7.6466  -7.5194  -7.4955  -7.3811  -7.1942  -7.0912  -6.8863
    -6.6456  -6.4132  -6.2050  -6.1814  -5.9960  -5.9523  -5.8072  -5.7696
    -5.4747  -5.4202  -5.2372  -5.0631  -4.4708  -4.3690  -4.1119  -3.7909
    -2.5126  -1.5739  -1.5100  -1.5015  -1.4701  -1.4239  -1.4075  -1.3685
    -1.3433  -1.3361  -1.3027  -1.1862   0.5685   0.6103   1.0168   1.0439
     1.1629   1.2623   1.3923   1.7856   1.8914   1.9118

          k = 0.1667-0.0962 0.0000 ( 59226 PWs)   bands (ev):

   -72.5096 -72.5095 -43.9745 -43.9737 -43.9697 -43.9691 -43.9614 -43.9612
   -21.3382 -20.5613 -20.3703 -20.3616 -20.0169 -20.0011 -19.8285 -18.7593
   -18.7432 -18.4029 -18.3955 -18.3771 -18.2885 -18.2851 -18.1006 -18.0936
   -12.5300 -12.5275 -12.4318 -11.6064 -11.5985 -11.4483 -11.4452 -10.9501
   -10.9468  -9.9542  -9.9486  -9.6996  -9.3999  -9.3954  -9.2540  -9.2505
    -9.0653  -9.0639  -8.9499  -8.3483  -8.3438  -7.9253  -7.9229  -7.9087
    -7.8688  -7.7939  -7.6309  -7.6101  -7.1597  -7.1164  -6.9831  -6.9131
    -6.9069  -6.8731  -6.5558  -6.5505  -6.2809  -5.3794  -5.3412  -5.1667
    -5.0887  -4.8394  -4.8256  -4.7727  -4.6400  -4.6220  -4.3729  -4.3557
    -2.5248  -1.5644  -1.5138  -1.5018  -1.4725  -1.4305  -1.3992  -1.3690
    -1.3434  -1.3363  -1.3031  -1.1847   0.6006   0.8108   0.9603   1.1806
     1.2824   1.3086   1.4483   1.5540   1.6461   1.6735

          k =-0.5000-0.8660 0.0000 ( 59292 PWs)   bands (ev):

   -72.5097 -72.5095 -43.9745 -43.9737 -43.9697 -43.9691 -43.9614 -43.9612
   -21.0867 -21.0592 -20.4956 -20.4858 -19.4548 -19.4475 -19.4349 -19.4307
   -19.0248 -19.0037 -18.3614 -18.3572 -18.3280 -18.3255 -17.8192 -17.8099
   -12.1031 -12.1007 -12.0774 -12.0742 -11.9047 -11.8936 -11.3597 -11.3438
   -10.2636 -10.2533 -10.1580 -10.1558 -10.1511 -10.1492  -8.6236  -8.5832
    -8.5786  -8.5614  -8.5580  -8.5570  -7.8926  -7.8886  -7.8821  -7.8800
    -7.8434  -7.8409  -7.8036  -7.7815  -7.5222  -7.5008  -6.6389  -6.6282
    -6.3924  -6.3526  -6.3328  -6.3144  -6.2193  -6.2044  -5.7443  -5.7113
    -5.5774  -5.5569  -4.7638  -4.7564  -4.7152  -4.6967  -3.9119  -3.8896
    -2.4565  -1.6656  -1.5054  -1.4951  -1.4594  -1.4251  -1.4054  -1.3642
    -1.3547  -1.3507  -1.3191  -1.2787   0.8249   0.9976   1.0571   1.2000
     1.2519   1.3391   1.5121   1.5869   1.6315   1.6422

          k =-0.1667 0.2887 0.0000 ( 59267 PWs)   bands (ev):

   -72.5096 -72.5095 -43.9745 -43.9737 -43.9697 -43.9691 -43.9614 -43.9612
   -21.2719 -20.6947 -20.6702 -20.1278 -20.1216 -19.6213 -19.5970 -19.1240
   -18.7318 -18.7072 -18.4798 -18.4759 -18.2203 -18.1123 -18.0959 -17.8732
   -12.5084 -12.2291 -12.2268 -11.8470 -11.8380 -11.6816 -11.2224 -11.2058
   -10.4152 -10.3918 -10.1464 -10.1328  -9.6157  -9.6088  -8.8626  -8.8509
    -8.8469  -8.7978  -8.7767  -8.6199  -8.2204  -8.0837  -8.0344  -7.8528
    -7.8505  -7.4651  -7.4583  -7.3135  -7.2765  -7.2355  -7.2259  -6.9826
    -6.9798  -6.6001  -6.5527  -6.1787  -6.1749  -5.8970  -5.4420  -5.3324
    -5.2888  -5.2235  -4.9404  -4.9205  -4.5326  -4.3823  -4.3577  -4.0027
    -2.5187  -1.5691  -1.5119  -1.5016  -1.4714  -1.4266  -1.4031  -1.3688
    -1.3434  -1.3362  -1.3029  -1.1855   0.5865   0.7140   0.9910   1.1648
     1.2341   1.3977   1.4941   1.5508   1.5943   1.7655

          k = 0.3333 0.0000 0.0000 ( 59267 PWs)   bands (ev):

   -72.5096 -72.5095 -43.9745 -43.9737 -43.9697 -43.9691 -43.9614 -43.9612
   -21.2714 -20.7127 -20.6520 -20.1364 -20.1113 -19.6400 -19.5804 -19.1263
   -18.7423 -18.6913 -18.4906 -18.4664 -18.2172 -18.1311 -18.0833 -17.8722
   -12.5068 -12.2378 -12.2191 -11.8547 -11.8329 -11.6801 -11.2338 -11.1938
   -10.4156 -10.3904 -10.1564 -10.1242  -9.6195  -9.6034  -8.8636  -8.8546
    -8.8382  -8.8138  -8.7627  -8.6208  -8.2223  -8.1302  -7.9869  -7.8537
    -7.8477  -7.4693  -7.4532  -7.3263  -7.2591  -7.2420  -7.2192  -6.9921
    -6.9720  -6.6456  -6.5146  -6.1807  -6.1722  -5.9031  -5.4419  -5.3443
    -5.2664  -5.2239  -4.9576  -4.9048  -4.5271  -4.4093  -4.3414  -4.0013
    -2.4835  -1.6245  -1.5080  -1.4976  -1.4645  -1.4293  -1.4011  -1.3661
    -1.3491  -1.3468  -1.3119  -1.2566   0.8372   0.9258   1.0883   1.1510
     1.2682   1.3778   1.4601   1.5086   1.5485   1.6354

          k =-0.1667-0.4811 0.0000 ( 59291 PWs)   bands (ev):

   -72.5097 -72.5095 -43.9745 -43.9737 -43.9697 -43.9691 -43.9614 -43.9612
   -21.1423 -20.9362 -20.7462 -20.1850 -19.8289 -19.4905 -19.3427 -19.1980
   -19.0390 -18.8017 -18.6678 -18.5666 -18.1749 -18.1113 -17.9449 -17.7476
   -12.3729 -12.1380 -12.0672 -11.9299 -11.7077 -11.6777 -11.5762 -10.9652
   -10.9140 -10.6475 -10.5458  -9.8841  -9.7170  -9.3596  -9.1346  -8.6959
    -8.6472  -8.5771  -8.4124  -8.3915  -8.1844  -8.1472  -8.0905  -8.0699
    -7.7126  -7.6467  -7.5194  -7.4955  -7.3811  -7.1942  -7.0912  -6.8863
    -6.6456  -6.4132  -6.2050  -6.1815  -5.9960  -5.9523  -5.8072  -5.7696
    -5.4747  -5.4202  -5.2372  -5.0631  -4.4708  -4.3690  -4.1119  -3.7909
    -2.5126  -1.5739  -1.5100  -1.5015  -1.4701  -1.4239  -1.4075  -1.3685
    -1.3433  -1.3361  -1.3027  -1.1862   0.5685   0.6103   1.0168   1.0438
     1.1629   1.2623   1.3923   1.7856   1.8914   1.9118

          k = 0.5000-0.0962 0.0000 ( 59291 PWs)   bands (ev):

   -72.5097 -72.5095 -43.9745 -43.9737 -43.9697 -43.9691 -43.9614 -43.9612
   -21.1395 -20.9439 -20.7413 -20.1834 -19.8283 -19.4934 -19.3478 -19.1928
   -19.0407 -18.8034 -18.6564 -18.5724 -18.1656 -18.1257 -17.9420 -17.7471
   -12.3704 -12.1390 -12.0657 -11.9344 -11.7180 -11.6659 -11.5777 -10.9662
   -10.9113 -10.6454 -10.5486  -9.8823  -9.7172  -9.3602  -9.1340  -8.6848
    -8.6481  -8.5745  -8.4251  -8.4154  -8.1826  -8.1264  -8.1014  -8.0599
    -7.7085  -7.6471  -7.5189  -7.4963  -7.3758  -7.1957  -7.0921  -6.8842
    -6.6463  -6.4235  -6.2206  -6.1807  -5.9797  -5.9519  -5.8064  -5.7743
    -5.4757  -5.4220  -5.2116  -5.0772  -4.4534  -4.3946  -4.1071  -3.7901
    -2.4566  -1.6655  -1.5052  -1.4952  -1.4593  -1.4264  -1.4049  -1.3642
    -1.3547  -1.3507  -1.3191  -1.2787   0.7957   0.9930   1.0603   1.1599
     1.2482   1.2696   1.3937   1.5380   1.6639   1.8023

          k =-0.3333-0.3849 0.0000 ( 59291 PWs)   bands (ev):

   -72.5097 -72.5095 -43.9745 -43.9737 -43.9697 -43.9691 -43.9614 -43.9612
   -21.1405 -20.9412 -20.7432 -20.1829 -19.8308 -19.4910 -19.3426 -19.1970
   -19.0433 -18.8012 -18.6579 -18.5722 -18.1672 -18.1232 -17.9421 -17.7474
   -12.3721 -12.1357 -12.0685 -11.9322 -11.7086 -11.6769 -11.5772 -10.9659
   -10.9116 -10.6449 -10.5487  -9.8823  -9.7173  -9.3604  -9.1353  -8.6886
    -8.6464  -8.5764  -8.4153  -8.4108  -8.1838  -8.1343  -8.0914  -8.0715
    -7.7087  -7.6460  -7.5242  -7.4911  -7.3742  -7.1956  -7.0929  -6.8928
    -6.6441  -6.4144  -6.2056  -6.1831  -5.9931  -5.9508  -5.8066  -5.7822
    -5.4757  -5.4158  -5.2120  -5.0790  -4.4549  -4.3923  -4.1069  -3.7904
    -2.4768  -1.6303  -1.5071  -1.4973  -1.4638  -1.4248  -1.4060  -1.3660
    -1.3493  -1.3466  -1.3116  -1.2570   0.7160   0.9017   1.0244   1.0990
     1.1918   1.2884   1.3504   1.6169   1.7305   1.8584

          k = 0.5000 0.0962 0.0000 ( 59291 PWs)   bands (ev):

   -72.5097 -72.5095 -43.9745 -43.9737 -43.9697 -43.9691 -43.9614 -43.9612
   -21.1395 -20.9439 -20.7413 -20.1834 -19.8283 -19.4934 -19.3478 -19.1928
   -19.0407 -18.8034 -18.6564 -18.5725 -18.1656 -18.1256 -17.9420 -17.7471
   -12.3704 -12.1390 -12.0657 -11.9344 -11.7180 -11.6659 -11.5776 -10.9661
   -10.9113 -10.6454 -10.5486  -9.8823  -9.7172  -9.3602  -9.1340  -8.6848
    -8.6481  -8.5745  -8.4251  -8.4154  -8.1826  -8.1264  -8.1014  -8.0599
    -7.7086  -7.6470  -7.5189  -7.4964  -7.3758  -7.1957  -7.0921  -6.8842
    -6.6462  -6.4235  -6.2206  -6.1807  -5.9797  -5.9519  -5.8065  -5.7743
    -5.4758  -5.4220  -5.2116  -5.0771  -4.4534  -4.3946  -4.1072  -3.7901
    -2.4566  -1.6655  -1.5052  -1.4952  -1.4593  -1.4264  -1.4049  -1.3642
    -1.3547  -1.3507  -1.3191  -1.2787   0.7957   0.9930   1.0603   1.1599
     1.2482   1.2696   1.3937   1.5381   1.6639   1.8024

          k =-0.3333 0.3849 0.0000 ( 59291 PWs)   bands (ev):

   -72.5097 -72.5095 -43.9745 -43.9737 -43.9697 -43.9691 -43.9614 -43.9612
   -21.1405 -20.9412 -20.7432 -20.1829 -19.8308 -19.4910 -19.3426 -19.1970
   -19.0433 -18.8012 -18.6578 -18.5722 -18.1672 -18.1233 -17.9421 -17.7474
   -12.3721 -12.1357 -12.0685 -11.9322 -11.7087 -11.6769 -11.5772 -10.9660
   -10.9116 -10.6449 -10.5487  -9.8824  -9.7172  -9.3604  -9.1353  -8.6886
    -8.6464  -8.5764  -8.4154  -8.4108  -8.1838  -8.1343  -8.0914  -8.0715
    -7.7086  -7.6459  -7.5242  -7.4911  -7.3742  -7.1956  -7.0929  -6.8928
    -6.6442  -6.4144  -6.2056  -6.1832  -5.9931  -5.9509  -5.8065  -5.7823
    -5.4755  -5.4158  -5.2120  -5.0790  -4.4549  -4.3923  -4.1069  -3.7904
    -2.4768  -1.6303  -1.5071  -1.4973  -1.4638  -1.4248  -1.4060  -1.3660
    -1.3493  -1.3466  -1.3116  -1.2570   0.7160   0.9017   1.0244   1.0990
     1.1918   1.2884   1.3504   1.6168   1.7305   1.8585

          k =-0.1667-0.0962 0.0000 ( 59226 PWs)   bands (ev):

   -72.5096 -72.5095 -43.9745 -43.9737 -43.9697 -43.9691 -43.9614 -43.9612
   -21.3382 -20.5613 -20.3703 -20.3616 -20.0169 -20.0011 -19.8285 -18.7592
   -18.7431 -18.4029 -18.3956 -18.3771 -18.2885 -18.2851 -18.1006 -18.0936
   -12.5300 -12.5275 -12.4317 -11.6063 -11.5985 -11.4483 -11.4452 -10.9501
   -10.9468  -9.9542  -9.9487  -9.6996  -9.3998  -9.3954  -9.2540  -9.2505
    -9.0653  -9.0639  -8.9499  -8.3483  -8.3438  -7.9253  -7.9229  -7.9087
    -7.8687  -7.7939  -7.6309  -7.6101  -7.1597  -7.1163  -6.9832  -6.9130
    -6.9069  -6.8731  -6.5558  -6.5504  -6.2810  -5.3794  -5.3412  -5.1666
    -5.0888  -4.8394  -4.8256  -4.7727  -4.6399  -4.6220  -4.3729  -4.3557
    -2.5248  -1.5644  -1.5138  -1.5018  -1.4725  -1.4305  -1.3992  -1.3690
    -1.3434  -1.3363  -1.3031  -1.1847   0.6007   0.8108   0.9603   1.1806
     1.2825   1.3086   1.4483   1.5540   1.6461   1.6734

          k =-0.0000-0.1925 0.0000 ( 59226 PWs)   bands (ev):

   -72.5096 -72.5095 -43.9744 -43.9737 -43.9697 -43.9691 -43.9614 -43.9612
   -21.3383 -20.5564 -20.3774 -20.3632 -20.0101 -20.0008 -19.8317 -18.7548
   -18.7437 -18.4298 -18.3863 -18.3769 -18.2783 -18.2766 -18.1039 -18.0953
   -12.5381 -12.5198 -12.4313 -11.6068 -11.5983 -11.4560 -11.4359 -10.9515
   -10.9468  -9.9519  -9.9515  -9.6991  -9.4035  -9.3899  -9.2537  -9.2528
    -9.0656  -9.0632  -8.9505  -8.3462  -8.3459  -7.9259  -7.9201  -7.8887
    -7.8685  -7.7957  -7.6720  -7.6030  -7.1444  -7.1060  -6.9820  -6.9122
    -6.9089  -6.8851  -6.5550  -6.5506  -6.2815  -5.3764  -5.3345  -5.1669
    -5.0886  -4.8879  -4.8047  -4.7781  -4.6201  -4.6087  -4.3823  -4.3558
    -2.5404  -1.5438  -1.5159  -1.5037  -1.4752  -1.4293  -1.4001  -1.3701
    -1.3408  -1.3317  -1.2996  -1.1344   0.4508   0.7492   0.9307   1.1551
     1.2341   1.3899   1.4260   1.5830   1.6417   1.8041

          k = 0.5000-0.8660 0.0000 ( 59292 PWs)   bands (ev):

   -72.5097 -72.5095 -43.9745 -43.9737 -43.9697 -43.9691 -43.9614 -43.9612
   -21.0867 -21.0591 -20.4956 -20.4858 -19.4548 -19.4475 -19.4349 -19.4307
   -19.0249 -19.0036 -18.3614 -18.3573 -18.3279 -18.3255 -17.8192 -17.8098
   -12.1031 -12.1008 -12.0774 -12.0741 -11.9047 -11.8936 -11.3598 -11.3437
   -10.2636 -10.2534 -10.1580 -10.1558 -10.1511 -10.1492  -8.6237  -8.5833
    -8.5786  -8.5614  -8.5579  -8.5568  -7.8927  -7.8886  -7.8821  -7.8800
    -7.8434  -7.8409  -7.8036  -7.7815  -7.5222  -7.5009  -6.6388  -6.6281
    -6.3924  -6.3526  -6.3328  -6.3144  -6.2193  -6.2042  -5.7443  -5.7114
    -5.5775  -5.5570  -4.7638  -4.7565  -4.7152  -4.6966  -3.9119  -3.8896
    -2.4565  -1.6656  -1.5054  -1.4951  -1.4594  -1.4251  -1.4054  -1.3642
    -1.3547  -1.3507  -1.3191  -1.2787   0.8248   0.9976   1.0571   1.2001
     1.2518   1.3391   1.5121   1.5869   1.6315   1.6421

          k =-1.0000 0.0000 0.0000 ( 59292 PWs)   bands (ev):

   -72.5097 -72.5095 -43.9745 -43.9737 -43.9697 -43.9691 -43.9614 -43.9612
   -21.1026 -21.0405 -20.4995 -20.4865 -19.4561 -19.4505 -19.4353 -19.4202
   -19.0389 -18.9908 -18.4106 -18.3380 -18.3244 -18.3001 -17.8196 -17.8113
   -12.1404 -12.0907 -12.0690 -12.0531 -11.9032 -11.8946 -11.3736 -11.3306
   -10.2664 -10.2654 -10.1556 -10.1535 -10.1466 -10.1464  -8.6617  -8.6062
    -8.5748  -8.5527  -8.5373  -8.5125  -7.9031  -7.8920  -7.8840  -7.8825
    -7.8454  -7.8348  -7.8203  -7.7712  -7.5388  -7.4864  -6.6341  -6.6298
    -6.3994  -6.3510  -6.3299  -6.2913  -6.2332  -6.1933  -5.7684  -5.6945
    -5.5918  -5.5430  -4.8551  -4.7197  -4.7009  -4.6595  -3.9127  -3.8922
    -2.5286  -1.5524  -1.5110  -1.5036  -1.4724  -1.4235  -1.4081  -1.3695
    -1.3406  -1.3316  -1.2994  -1.1363   0.4498   0.5312   1.0337   1.0433
     1.1235   1.5025   1.5828   1.5968   1.6135   1.9227

 ------ SPIN DOWN ----------


          k = 0.1667 0.2887 0.0000 ( 59267 PWs)   bands (ev):

   -68.1414 -68.1413 -39.6435 -39.6426 -39.6333 -39.6325 -39.6295 -39.6294
   -21.2644 -20.6863 -20.6644 -20.1204 -20.1146 -19.6130 -19.5913 -19.1167
   -18.7217 -18.7007 -18.4725 -18.4689 -18.2114 -18.1054 -18.0906 -17.8659
   -12.5034 -12.2239 -12.2221 -11.8424 -11.8340 -11.6775 -11.2169 -11.2015
   -10.4100 -10.3867 -10.1406 -10.1284  -9.6105  -9.6044  -8.8454  -8.8413
    -8.8341  -8.7925  -8.7730  -8.6154  -8.2161  -8.0539  -8.0148  -7.8481
    -7.8462  -7.4589  -7.4529  -7.2830  -7.2597  -7.2306  -7.2219  -6.9781
    -6.9754  -6.5735  -6.5362  -6.1737  -6.1704  -5.8737  -5.4366  -5.3008
    -5.2702  -5.2187  -4.9172  -4.9036  -4.5078  -4.3627  -4.3433  -3.9832
    -0.3772   0.7222   1.0330   1.1803   1.3109   1.3716   1.4408   1.5250
     1.5528   1.7982   1.9398   2.0979   2.1541   2.2152   2.2855   2.3261
     2.4274   2.4567   2.5044   2.5841   2.5886   2.6215

          k = 0.1667-0.4811 0.0000 ( 59291 PWs)   bands (ev):

   -68.1414 -68.1413 -39.6435 -39.6426 -39.6333 -39.6325 -39.6295 -39.6294
   -21.1340 -20.9302 -20.7390 -20.1775 -19.8218 -19.4834 -19.3353 -19.1906
   -19.0317 -18.7950 -18.6574 -18.5613 -18.1643 -18.1076 -17.9376 -17.7402
   -12.3677 -12.1330 -12.0630 -11.9256 -11.7033 -11.6734 -11.5716 -10.9603
   -10.9085 -10.6419 -10.5416  -9.8785  -9.7123  -9.3544  -9.1298  -8.6623
    -8.6422  -8.5714  -8.4082  -8.3747  -8.1799  -8.1215  -8.0854  -8.0660
    -7.7074  -7.6421  -7.5143  -7.4918  -7.3554  -7.1891  -7.0867  -6.8630
    -6.6400  -6.3912  -6.1812  -6.1767  -5.9734  -5.9467  -5.8023  -5.7483
    -5.4701  -5.3994  -5.2043  -5.0502  -4.4409  -4.3597  -4.0921  -3.7716
    -0.3465   0.7011   1.0018   1.0732   1.1261   1.2889   1.3252   1.7345
     1.8380   1.9230   2.0255   2.0943   2.1767   2.2436   2.2834   2.3320
     2.3908   2.4677   2.4998   2.5158   2.5372   2.6157

          k = 0.1667-0.0962 0.0000 ( 59226 PWs)   bands (ev):

   -68.1414 -68.1413 -39.6435 -39.6426 -39.6333 -39.6325 -39.6295 -39.6294
   -21.3308 -20.5529 -20.3635 -20.3556 -20.0081 -19.9946 -19.8227 -18.7496
   -18.7361 -18.3937 -18.3878 -18.3702 -18.2814 -18.2782 -18.0942 -18.0876
   -12.5248 -12.5229 -12.4270 -11.6015 -11.5944 -11.4435 -11.4405 -10.9451
   -10.9421  -9.9490  -9.9441  -9.6942  -9.3947  -9.3906  -9.2486  -9.2455
    -9.0607  -9.0594  -8.9229  -8.3426  -8.3385  -7.9203  -7.9184  -7.8773
    -7.8615  -7.7895  -7.6081  -7.5928  -7.1273  -7.0974  -6.9782  -6.9082
    -6.9029  -6.8580  -6.5509  -6.5461  -6.2763  -5.3474  -5.3210  -5.1616
    -5.0838  -4.8124  -4.8027  -4.7544  -4.6186  -4.6057  -4.3539  -4.3396
    -0.4059   0.7482   1.0475   1.0837   1.2334   1.4322   1.5059   1.5540
     1.7788   1.8492   1.9710   2.0400   2.0710   2.1431   2.2750   2.3303
     2.4098   2.4347   2.4865   2.5703   2.5961   2.6234

          k =-0.5000-0.8660 0.0000 ( 59292 PWs)   bands (ev):

   -68.1414 -68.1413 -39.6435 -39.6426 -39.6333 -39.6325 -39.6295 -39.6294
   -21.0777 -21.0533 -20.4884 -20.4795 -19.4455 -19.4391 -19.4286 -19.4244
   -19.0166 -18.9982 -18.3521 -18.3479 -18.3222 -18.3201 -17.8117 -17.8031
   -12.0970 -12.0951 -12.0734 -12.0705 -11.9000 -11.8900 -11.3544 -11.3393
   -10.2578 -10.2487 -10.1526 -10.1508 -10.1461 -10.1447  -8.5887  -8.5764
    -8.5729  -8.5542  -8.5532  -8.5418  -7.8866  -7.8836  -7.8777  -7.8759
    -7.8385  -7.8357  -7.7801  -7.7625  -7.5171  -7.4973  -6.6331  -6.6238
    -6.3520  -6.3276  -6.3129  -6.3000  -6.2138  -6.1998  -5.7205  -5.6953
    -5.5717  -5.5530  -4.7363  -4.7302  -4.6976  -4.6836  -3.8907  -3.8731
    -0.2661   0.3922   1.0183   1.0495   1.3705   1.4271   1.5103   1.5498
     1.7654   1.7800   2.0331   2.0386   2.1610   2.3034   2.3194   2.3640
     2.4024   2.4359   2.4827   2.4845   2.5607   2.6332

          k =-0.1667 0.2887 0.0000 ( 59267 PWs)   bands (ev):

   -68.1414 -68.1413 -39.6435 -39.6426 -39.6333 -39.6325 -39.6295 -39.6294
   -21.2644 -20.6863 -20.6643 -20.1204 -20.1146 -19.6131 -19.5913 -19.1167
   -18.7218 -18.7007 -18.4725 -18.4689 -18.2114 -18.1055 -18.0905 -17.8659
   -12.5034 -12.2239 -12.2221 -11.8424 -11.8340 -11.6775 -11.2170 -11.2014
   -10.4100 -10.3866 -10.1406 -10.1284  -9.6105  -9.6044  -8.8454  -8.8413
    -8.8341  -8.7925  -8.7731  -8.6154  -8.2161  -8.0539  -8.0148  -7.8481
    -7.8461  -7.4589  -7.4530  -7.2830  -7.2597  -7.2306  -7.2218  -6.9781
    -6.9754  -6.5736  -6.5362  -6.1737  -6.1704  -5.8737  -5.4367  -5.3008
    -5.2702  -5.2186  -4.9172  -4.9036  -4.5078  -4.3628  -4.3433  -3.9832
    -0.3772   0.7223   1.0331   1.1802   1.3109   1.3716   1.4407   1.5250
     1.5528   1.7981   1.9399   2.0979   2.1539   2.2149   2.2854   2.3261
     2.4273   2.4566   2.5043   2.5838   2.5883   2.6214

          k = 0.3333 0.0000 0.0000 ( 59267 PWs)   bands (ev):

   -68.1414 -68.1413 -39.6435 -39.6426 -39.6333 -39.6325 -39.6295 -39.6294
   -21.2640 -20.7015 -20.6491 -20.1276 -20.1062 -19.6285 -19.5774 -19.1183
   -18.7306 -18.6882 -18.4814 -18.4610 -18.2090 -18.1203 -18.0801 -17.8652
   -12.5023 -12.2312 -12.2155 -11.8490 -11.8294 -11.6763 -11.2274 -11.1906
   -10.4102 -10.3857 -10.1488 -10.1212  -9.6138  -9.5998  -8.8486  -8.8414
    -8.8282  -8.8064  -8.7607  -8.6161  -8.2176  -8.0872  -7.9811  -7.8490
    -7.8437  -7.4622  -7.4490  -7.2926  -7.2471  -7.2363  -7.2160  -6.9861
    -6.9687  -6.6055  -6.5084  -6.1755  -6.1680  -5.8772  -5.4366  -5.3100
    -5.2549  -5.2189  -4.9302  -4.8915  -4.5042  -4.3814  -4.3311  -3.9824
    -0.3338   0.5229   1.0400   1.1581   1.3302   1.4563   1.4898   1.5340
     1.5705   1.7597   2.0488   2.1699   2.1851   2.2382   2.2583   2.3829
     2.4163   2.4411   2.4823   2.5524   2.5731   2.5864

          k =-0.1667-0.4811 0.0000 ( 59291 PWs)   bands (ev):

   -68.1414 -68.1413 -39.6435 -39.6426 -39.6333 -39.6325 -39.6295 -39.6294
   -21.1340 -20.9302 -20.7390 -20.1775 -19.8218 -19.4834 -19.3353 -19.1906
   -19.0317 -18.7950 -18.6574 -18.5613 -18.1643 -18.1076 -17.9376 -17.7402
   -12.3677 -12.1330 -12.0630 -11.9255 -11.7032 -11.6734 -11.5716 -10.9603
   -10.9085 -10.6419 -10.5415  -9.8784  -9.7123  -9.3544  -9.1299  -8.6623
    -8.6422  -8.5714  -8.4082  -8.3747  -8.1799  -8.1215  -8.0854  -8.0661
    -7.7074  -7.6422  -7.5143  -7.4917  -7.3554  -7.1890  -7.0867  -6.8630
    -6.6400  -6.3913  -6.1812  -6.1767  -5.9734  -5.9467  -5.8022  -5.7483
    -5.4701  -5.3994  -5.2043  -5.0503  -4.4409  -4.3597  -4.0921  -3.7716
    -0.3465   0.7011   1.0018   1.0732   1.1261   1.2889   1.3253   1.7345
     1.8380   1.9230   2.0254   2.0943   2.1767   2.2437   2.2835   2.3321
     2.3907   2.4677   2.4999   2.5151   2.5372   2.6148

          k = 0.5000-0.0962 0.0000 ( 59291 PWs)   bands (ev):

   -68.1414 -68.1413 -39.6435 -39.6425 -39.6333 -39.6325 -39.6295 -39.6294
   -21.1319 -20.9359 -20.7354 -20.1764 -19.8214 -19.4855 -19.3389 -19.1869
   -19.0329 -18.7962 -18.6493 -18.5655 -18.1570 -18.1183 -17.9356 -17.7398
   -12.3659 -12.1337 -12.0617 -11.9292 -11.7120 -11.6633 -11.5729 -10.9610
   -10.9064 -10.6402 -10.5437  -9.8770  -9.7125  -9.3549  -9.1294  -8.6564
    -8.6426  -8.5695  -8.4122  -8.3922  -8.1784  -8.1101  -8.0948  -8.0574
    -7.7041  -7.6425  -7.5139  -7.4924  -7.3522  -7.1901  -7.0874  -6.8620
    -6.6404  -6.3966  -6.1904  -6.1761  -5.9645  -5.9466  -5.8016  -5.7505
    -5.4709  -5.4006  -5.1898  -5.0582  -4.4291  -4.3759  -4.0897  -3.7711
    -0.2668   0.3970   0.9978   1.0841   1.1382   1.2933   1.5730   1.7465
     1.7690   1.9969   2.0610   2.1278   2.1862   2.2412   2.2964   2.3584
     2.4251   2.4432   2.4992   2.5203   2.5700   2.5990

          k =-0.3333-0.3849 0.0000 ( 59291 PWs)   bands (ev):

   -68.1414 -68.1413 -39.6435 -39.6425 -39.6333 -39.6325 -39.6295 -39.6294
   -21.1326 -20.9339 -20.7368 -20.1761 -19.8232 -19.4838 -19.3352 -19.1900
   -19.0348 -18.7946 -18.6503 -18.5654 -18.1582 -18.1166 -17.9357 -17.7400
   -12.3672 -12.1311 -12.0639 -11.9275 -11.7040 -11.6726 -11.5724 -10.9608
   -10.9066 -10.6399 -10.5438  -9.8771  -9.7126  -9.3550  -9.1304  -8.6581
    -8.6416  -8.5709  -8.4096  -8.3860  -8.1794  -8.1146  -8.0860  -8.0673
    -7.7043  -7.6416  -7.5184  -7.4881  -7.3514  -7.1901  -7.0880  -6.8667
    -6.6389  -6.3919  -6.1821  -6.1772  -5.9718  -5.9457  -5.8018  -5.7552
    -5.4708  -5.3973  -5.1902  -5.0589  -4.4303  -4.3743  -4.0896  -3.7713
    -0.2972   0.4869   1.0047   1.0533   1.1911   1.2569   1.4636   1.7682
     1.9003   1.9409   2.0355   2.0643   2.1533   2.2903   2.3062   2.3510
     2.4077   2.4390   2.4724   2.5293   2.5681   2.6000

          k = 0.5000 0.0962 0.0000 ( 59291 PWs)   bands (ev):

   -68.1414 -68.1413 -39.6435 -39.6425 -39.6333 -39.6325 -39.6295 -39.6294
   -21.1319 -20.9359 -20.7354 -20.1764 -19.8214 -19.4855 -19.3389 -19.1869
   -19.0329 -18.7962 -18.6493 -18.5655 -18.1570 -18.1183 -17.9356 -17.7398
   -12.3659 -12.1337 -12.0617 -11.9292 -11.7120 -11.6633 -11.5729 -10.9609
   -10.9064 -10.6403 -10.5437  -9.8770  -9.7125  -9.3549  -9.1294  -8.6564
    -8.6426  -8.5696  -8.4122  -8.3922  -8.1784  -8.1101  -8.0947  -8.0574
    -7.7042  -7.6424  -7.5139  -7.4925  -7.3522  -7.1902  -7.0874  -6.8620
    -6.6403  -6.3966  -6.1903  -6.1760  -5.9645  -5.9465  -5.8017  -5.7505
    -5.4710  -5.4007  -5.1898  -5.0581  -4.4291  -4.3758  -4.0898  -3.7711
    -0.2668   0.3970   0.9978   1.0841   1.1382   1.2933   1.5730   1.7464
     1.7689   1.9971   2.0610   2.1278   2.1864   2.2411   2.2963   2.3583
     2.4252   2.4433   2.4991   2.5207   2.5687   2.5992

          k =-0.3333 0.3849 0.0000 ( 59291 PWs)   bands (ev):

   -68.1414 -68.1413 -39.6435 -39.6425 -39.6333 -39.6325 -39.6295 -39.6294
   -21.1326 -20.9339 -20.7368 -20.1761 -19.8232 -19.4838 -19.3352 -19.1900
   -19.0348 -18.7946 -18.6502 -18.5654 -18.1582 -18.1166 -17.9357 -17.7400
   -12.3671 -12.1311 -12.0639 -11.9275 -11.7040 -11.6726 -11.5724 -10.9608
   -10.9066 -10.6399 -10.5438  -9.8771  -9.7125  -9.3550  -9.1304  -8.6581
    -8.6416  -8.5709  -8.4096  -8.3860  -8.1795  -8.1146  -8.0860  -8.0673
    -7.7042  -7.6415  -7.5184  -7.4880  -7.3514  -7.1901  -7.0880  -6.8667
    -6.6389  -6.3919  -6.1821  -6.1773  -5.9718  -5.9458  -5.8018  -5.7553
    -5.4707  -5.3973  -5.1902  -5.0589  -4.4303  -4.3743  -4.0896  -3.7713
    -0.2973   0.4869   1.0047   1.0533   1.1911   1.2569   1.4636   1.7682
     1.9003   1.9410   2.0355   2.0642   2.1531   2.2902   2.3064   2.3510
     2.4076   2.4391   2.4722   2.5294   2.5682   2.6000

          k =-0.1667-0.0962 0.0000 ( 59226 PWs)   bands (ev):

   -68.1414 -68.1413 -39.6435 -39.6426 -39.6333 -39.6325 -39.6295 -39.6294
   -21.3308 -20.5529 -20.3635 -20.3556 -20.0081 -19.9946 -19.8227 -18.7496
   -18.7361 -18.3937 -18.3879 -18.3702 -18.2814 -18.2782 -18.0942 -18.0876
   -12.5248 -12.5229 -12.4270 -11.6015 -11.5944 -11.4435 -11.4406 -10.9451
   -10.9421  -9.9490  -9.9441  -9.6942  -9.3947  -9.3906  -9.2486  -9.2455
    -9.0607  -9.0594  -8.9229  -8.3426  -8.3385  -7.9203  -7.9183  -7.8773
    -7.8614  -7.7896  -7.6081  -7.5928  -7.1273  -7.0974  -6.9783  -6.9082
    -6.9029  -6.8580  -6.5509  -6.5461  -6.2764  -5.3474  -5.3210  -5.1615
    -5.0839  -4.8124  -4.8027  -4.7545  -4.6185  -4.6057  -4.3540  -4.3396
    -0.4059   0.7481   1.0475   1.0837   1.2335   1.4322   1.5059   1.5540
     1.7787   1.8492   1.9711   2.0401   2.0711   2.1432   2.2748   2.3303
     2.4099   2.4347   2.4864   2.5704   2.5964   2.6240

          k =-0.0000-0.1925 0.0000 ( 59226 PWs)   bands (ev):

   -68.1414 -68.1413 -39.6435 -39.6425 -39.6333 -39.6325 -39.6295 -39.6294
   -21.3309 -20.5493 -20.3688 -20.3567 -20.0027 -19.9948 -19.8251 -18.7460
   -18.7370 -18.4145 -18.3791 -18.3710 -18.2748 -18.2711 -18.0960 -18.0893
   -12.5318 -12.5163 -12.4267 -11.6019 -11.5944 -11.4501 -11.4325 -10.9461
   -10.9423  -9.9470  -9.9465  -9.6939  -9.3981  -9.3859  -9.2480  -9.2477
    -9.0612  -9.0587  -8.9233  -8.3409  -8.3402  -7.9213  -7.9158  -7.8696
    -7.8581  -7.7909  -7.6313  -7.5885  -7.1184  -7.0919  -6.9773  -6.9075
    -6.9046  -6.8646  -6.5500  -6.5465  -6.2768  -5.3450  -5.3183  -5.1618
    -5.0836  -4.8449  -4.7867  -4.7569  -4.6099  -4.5953  -4.3580  -4.3406
    -0.4229   0.8896   1.0068   1.1432   1.1965   1.3900   1.4738   1.5430
     1.7393   1.8527   1.9662   1.9662   2.0170   2.1453   2.2755   2.3191
     2.3888   2.4549   2.5209   2.5742   2.6361   2.6827

          k = 0.5000-0.8660 0.0000 ( 59292 PWs)   bands (ev):

   -68.1414 -68.1413 -39.6435 -39.6426 -39.6333 -39.6325 -39.6295 -39.6294
   -21.0777 -21.0532 -20.4884 -20.4795 -19.4455 -19.4391 -19.4286 -19.4244
   -19.0167 -18.9981 -18.3522 -18.3479 -18.3221 -18.3201 -17.8116 -17.8031
   -12.0970 -12.0952 -12.0734 -12.0704 -11.9000 -11.8899 -11.3544 -11.3393
   -10.2578 -10.2488 -10.1526 -10.1509 -10.1461 -10.1447  -8.5887  -8.5764
    -8.5729  -8.5541  -8.5530  -8.5417  -7.8866  -7.8836  -7.8777  -7.8759
    -7.8385  -7.8358  -7.7801  -7.7625  -7.5172  -7.4974  -6.6330  -6.6238
    -6.3520  -6.3276  -6.3129  -6.3000  -6.2138  -6.1997  -5.7206  -5.6953
    -5.5718  -5.5531  -4.7363  -4.7302  -4.6976  -4.6836  -3.8907  -3.8732
    -0.2660   0.3921   1.0183   1.0495   1.3704   1.4271   1.5103   1.5498
     1.7654   1.7800   2.0332   2.0386   2.1609   2.3031   2.3193   2.3636
     2.4023   2.4357   2.4823   2.4849   2.5602   2.6332

          k =-1.0000 0.0000 0.0000 ( 59292 PWs)   bands (ev):

   -68.1414 -68.1413 -39.6435 -39.6426 -39.6333 -39.6325 -39.6295 -39.6294
   -21.0912 -21.0376 -20.4912 -20.4801 -19.4469 -19.4414 -19.4285 -19.4166
   -19.0279 -18.9877 -18.3924 -18.3319 -18.3193 -18.2994 -17.8113 -17.8048
   -12.1299 -12.0863 -12.0662 -12.0517 -11.8988 -11.8909 -11.3669 -11.3276
   -10.2595 -10.2587 -10.1504 -10.1490 -10.1427 -10.1426  -8.6173  -8.5977
    -8.5694  -8.5497  -8.5359  -8.5070  -7.8950  -7.8855  -7.8792  -7.8782
    -7.8323  -7.8314  -7.7936  -7.7571  -7.5316  -7.4846  -6.6288  -6.6258
    -6.3578  -6.3275  -6.3115  -6.2847  -6.2257  -6.1900  -5.7359  -5.6832
    -5.5839  -5.5411  -4.8031  -4.7002  -4.6887  -4.6579  -3.8896  -3.8758
    -0.3668   0.8430   1.0109   1.0666   1.2185   1.2793   1.4871   1.5989
     1.6074   1.7420   1.8847   2.1116   2.1438   2.2491   2.2814   2.3200
     2.3878   2.5118   2.5210   2.5922   2.6135   2.6160

     the Fermi energy is    -0.8420 ev

!    total energy              =   -1133.81580579 Ry

     total all-electron energy =     -6753.491509 Ry
     estimated scf accuracy    <       0.00000002 Ry
     smearing contrib. (-TS)   =      -0.00000000 Ry
     internal energy E=F+TS    =   -1133.81580579 Ry

     The total energy is F=E-TS. E is the sum of the following terms:
     one-electron contribution =   -3920.95554732 Ry
     hartree contribution      =    1989.02944928 Ry
     xc contribution           =    -186.19791595 Ry
     ewald contribution        =    1343.67772140 Ry
     DFT-D3 Dispersion         =      -0.14074265 Ry
     one-center paw contrib.   =    -359.22877054 Ry

     total magnetization       =    12.00 Bohr mag/cell
     absolute magnetization    =    12.00 Bohr mag/cell

     convergence has been achieved in  12 iterations

     Writing output data file ./mytmp/Crdimer0.3-0.1.save/
 
     init_run     :     18.71s CPU     20.13s WALL (       1 calls)
     electrons    :    471.98s CPU    512.62s WALL (       1 calls)

     Called by init_run:
     wfcinit      :     13.78s CPU     14.59s WALL (       1 calls)
     potinit      :      1.50s CPU      1.57s WALL (       1 calls)
     hinit0       :      1.51s CPU      1.62s WALL (       1 calls)

     Called by electrons:
     c_bands      :    374.35s CPU    398.00s WALL (      12 calls)
     sum_band     :     69.34s CPU     79.14s WALL (      12 calls)
     v_of_rho     :      6.44s CPU      7.14s WALL (      13 calls)
     newd         :     15.62s CPU     21.81s WALL (      13 calls)
     PAW_pot      :      5.98s CPU      6.48s WALL (      13 calls)
     mix_rho      :      0.84s CPU      0.89s WALL (      12 calls)

     Called by c_bands:
     init_us_2    :      4.35s CPU      4.37s WALL (     750 calls)
     cegterg      :    363.78s CPU    387.37s WALL (     360 calls)

     Called by *egterg:
     cdiaghg      :     22.65s CPU     36.33s WALL (    2483 calls)
     h_psi        :    223.73s CPU    231.65s WALL (    2513 calls)
     s_psi        :     25.02s CPU     25.07s WALL (    2513 calls)
     g_psi        :      0.65s CPU      0.67s WALL (    2123 calls)

     Called by h_psi:
     h_psi:calbec :     26.63s CPU     27.33s WALL (    2513 calls)
     vloc_psi     :    169.62s CPU    176.73s WALL (    2513 calls)
     add_vuspsi   :     25.46s CPU     25.54s WALL (    2513 calls)

     General routines
     calbec       :     34.93s CPU     35.79s WALL (    2873 calls)
     fft          :      8.37s CPU     12.37s WALL (     319 calls)
     ffts         :      0.10s CPU      0.10s WALL (      50 calls)
     fftw         :    172.85s CPU    180.15s WALL (  225544 calls)
     interpolate  :      0.34s CPU      0.38s WALL (      26 calls)
 
     Parallel routines
     fft_scatt_xy :     27.87s CPU     28.83s WALL (  225913 calls)
     fft_scatt_yz :     71.48s CPU     78.90s WALL (  225913 calls)
 
     PWSCF        :   8m12.75s CPU   8m57.55s WALL

 
   This run was terminated on:   0:38:55  30Mar2021            

=------------------------------------------------------------------------------=
   JOB DONE.
=------------------------------------------------------------------------------=
