
     Program PWSCF v.6.7MaX starts on 29Mar2021 at 22: 1:46 

     This program is part of the open-source Quantum ESPRESSO suite
     for quantum simulation of materials; please cite
         "P. Giannozzi et al., J. Phys.:Condens. Matter 21 395502 (2009);
         "P. Giannozzi et al., J. Phys.:Condens. Matter 29 465901 (2017);
          URL http://www.quantum-espresso.org", 
     in publications or presentations arising from this work. More details at
     http://www.quantum-espresso.org/quote

     Parallel version (MPI), running on    48 processors

     MPI processes distributed on     1 nodes
     R & G space division:  proc/nbgrp/npool/nimage =      48
     Reading input from Crdimer0.24-0.2.scf.in

     Current dimensions of program PWSCF are:
     Max number of different atomic species (ntypx) = 10
     Max number of k-points (npk) =  40000
     Max angular momentum in pseudopotentials (lmaxx) =  3
     file N.pbe-n-kjpaw_psl.1.0.0.UPF: wavefunction(s)  2S renormalized
     file Cr.pbe-spn-kjpaw_psl.1.0.0.UPF: wavefunction(s)  3S 3P 3D renormalized
     file Cr.pbe-spn-kjpaw_psl.1.0.0.UPF: wavefunction(s)  3S 3P 3D renormalized

     --------------------------------------------
     Parameters for DFT-D3 Dispersion Correction:
     --------------------------------------------
       Reference C6 values for interpolation: 

         atom   Coordination number   C6
         B          0.000           214.36
         B          0.971           150.74
         B          1.944           106.23
         B          2.913            62.89
         B          4.586            56.06
         N          0.000            50.54
         N          0.994            44.25
         N          2.014            39.35
         N          2.990            31.16
         Cr1        0.000          1381.48
         Cr1        1.827           571.38
         Cr1       10.619           306.69
         Cr2        0.000          1381.48
         Cr2        1.827           571.38
         Cr2       10.619           306.69

       Values used:

         atom   Coordination number  R0_AB[au]  C6      C8
         B          3.350            3.039     62.88   2505.62
         B          3.335            3.039     62.89   2506.01
         B          3.338            3.039     62.89   2505.95
         B          3.337            3.039     62.89   2505.97
         B          3.355            3.039     62.88   2505.49
         B          3.335            3.039     62.89   2506.00
         N          3.136            2.478     31.22    688.68
         N          3.134            2.478     31.22    688.69
         N          3.143            2.478     31.21    688.62
         N          3.141            2.478     31.22    688.63
         N          3.137            2.478     31.22    688.67
         N          3.134            2.478     31.22    688.69
         N          3.149            2.478     31.21    688.57
         N          3.134            2.478     31.22    688.70
         N          3.134            2.478     31.22    688.69
         B          3.337            3.039     62.89   2505.96
         B          3.335            3.039     62.89   2506.01
         B          3.335            3.039     62.89   2506.00
         B          3.355            3.039     62.88   2505.49
         B          3.350            3.039     62.88   2505.62
         B          3.337            3.039     62.89   2505.96
         N          3.149            2.478     31.21    688.57
         B          3.336            3.039     62.89   2505.99
         B          3.336            3.039     62.89   2505.99
         B          3.344            3.039     62.89   2505.78
         N          3.134            2.478     31.22    688.69
         N          3.134            2.478     31.22    688.69
         N          3.135            2.478     31.22    688.69
         N          3.135            2.478     31.22    688.69
         N          3.143            2.478     31.21    688.62
         N          3.141            2.478     31.22    688.63
         B          3.344            3.039     62.89   2505.78
         Cr1        0.093            3.252   1381.48 127494.84
         Cr2        0.093            3.252   1381.48 127494.84

         Molecular C6 ( Ry / a.u.^6 ) =     79165.01


     Subspace diagonalization in iterative solution of the eigenvalue problem:
     one sub-group per band group will be used
     scalapack distributed-memory algorithm (size of sub-group:  6*  6 procs)

 
     Parallelization info
     --------------------
     sticks:   dense  smooth     PW     G-vecs:    dense   smooth      PW
     Min         235      98     26                36277     9874    1408
     Max         236      99     27                36282     9883    1425
     Sum       11311    4741   1285              1741401   474235   68095
 


     bravais-lattice index     =            4
     lattice parameter (alat)  =      18.9275  a.u.
     unit-cell volume          =   10553.3021 (a.u.)^3
     number of atoms/cell      =           34
     number of atomic types    =            4
     number of electrons       =       156.00
     number of Kohn-Sham states=           94
     kinetic-energy cutoff     =      48.0000  Ry
     charge density cutoff     =     457.0000  Ry
     scf convergence threshold =      1.0E-07
     mixing beta               =       0.5000
     number of iterations used =            8  plain     mixing
     Exchange-correlation= SLA  PW   PBX  PBC
                           (   1   4   3   4   0   0   0)

     celldm(1)=  18.927497  celldm(2)=   0.000000  celldm(3)=   1.797125
     celldm(4)=   0.000000  celldm(5)=   0.000000  celldm(6)=   0.000000

     crystal axes: (cart. coord. in units of alat)
               a(1) = (   1.000000   0.000000   0.000000 )  
               a(2) = (  -0.500000   0.866025   0.000000 )  
               a(3) = (   0.000000   0.000000   1.797125 )  

     reciprocal axes: (cart. coord. in units 2 pi/alat)
               b(1) = (  1.000000  0.577350  0.000000 )  
               b(2) = (  0.000000  1.154701  0.000000 )  
               b(3) = (  0.000000  0.000000  0.556444 )  


     PseudoPot. # 1 for B  read from file:
     /home/sf05/q-e-qe-6.7MaX-Release/pseudo/B.pbe-n-kjpaw_psl.1.0.0.UPF
     MD5 check sum: d9c678ba5d3b2fd7b74e61139c9288d8
     Pseudo is Projector augmented-wave + core cor, Zval =  3.0
     Generated using "atomic" code by A. Dal Corso  v.5.1.2
     Shape of augmentation charge: PSQ
     Using radial grid of 1059 points,  4 beta functions with: 
                l(1) =   0
                l(2) =   0
                l(3) =   1
                l(4) =   1
     Q(r) pseudized with 0 coefficients 


     PseudoPot. # 2 for N  read from file:
     /home/sf05/q-e-qe-6.7MaX-Release/pseudo/N.pbe-n-kjpaw_psl.1.0.0.UPF
     MD5 check sum: e0e4e94a9c4025c5b51bd7d8793849bd
     Pseudo is Projector augmented-wave + core cor, Zval =  5.0
     Generated using "atomic" code by A. Dal Corso  v.5.1.2
     Shape of augmentation charge: PSQ
     Using radial grid of 1085 points,  4 beta functions with: 
                l(1) =   0
                l(2) =   0
                l(3) =   1
                l(4) =   1
     Q(r) pseudized with 0 coefficients 


     PseudoPot. # 3 for Cr read from file:
     /home/sf05/q-e-qe-6.7MaX-Release/pseudo/Cr.pbe-spn-kjpaw_psl.1.0.0.UPF
     MD5 check sum: 198f1a2427a48552563eee314eba32ba
     Pseudo is Projector augmented-wave + core cor, Zval = 14.0
     Generated using &quot;atomic&quot; code by A. Dal Corso  v.6.3
     Shape of augmentation charge: PSQ
     Using radial grid of 1183 points,  6 beta functions with: 
                l(1) =   0
                l(2) =   0
                l(3) =   1
                l(4) =   1
                l(5) =   2
                l(6) =   2
     Q(r) pseudized with 0 coefficients 


     PseudoPot. # 4 for Cr read from file:
     /home/sf05/q-e-qe-6.7MaX-Release/pseudo/Cr.pbe-spn-kjpaw_psl.1.0.0.UPF
     MD5 check sum: 198f1a2427a48552563eee314eba32ba
     Pseudo is Projector augmented-wave + core cor, Zval = 14.0
     Generated using &quot;atomic&quot; code by A. Dal Corso  v.6.3
     Shape of augmentation charge: PSQ
     Using radial grid of 1183 points,  6 beta functions with: 
                l(1) =   0
                l(2) =   0
                l(3) =   1
                l(4) =   1
                l(5) =   2
                l(6) =   2
     Q(r) pseudized with 0 coefficients 


     atomic species   valence    mass     pseudopotential
        B              3.00    10.81100     B ( 1.00)
        N              5.00    14.00674     N ( 1.00)
        Cr1           14.00    51.99610     Cr( 1.00)
        Cr2           14.00    51.99610     Cr( 1.00)

     Starting magnetic structure 
     atomic species   magnetization
        B            0.000
        N            0.000
        Cr1          1.000
        Cr2          1.000

     No symmetry found



   Cartesian axes

     site n.     atom                  positions (alat units)
         1           B   tau(   1) = (  -0.1250000   0.2165064   0.8985623  )
         2           B   tau(   2) = (   0.3750000   0.6495191   0.8985623  )
         3           B   tau(   3) = (   0.2500000   0.0000000   0.8985623  )
         4           B   tau(   4) = (   0.7500000   0.0000000   0.8985623  )
         5           B   tau(   5) = (   0.1250000   0.2165064   0.8985623  )
         6           B   tau(   6) = (  -0.3750000   0.6495191   0.8985623  )
         7           N   tau(   7) = (   0.7500005   0.2886748   0.8985623  )
         8           N   tau(   8) = (   0.3750005   0.5051812   0.8985623  )
         9           N   tau(   9) = (   0.3750005   0.0721685   0.8985623  )
        10           N   tau(  10) = (   0.6250005   0.0721685   0.8985623  )
        11           N   tau(  11) = (   0.2500005   0.2886748   0.8985623  )
        12           N   tau(  12) = (   0.6250005   0.5051812   0.8985623  )
        13           N   tau(  13) = (   0.0000005   0.2886748   0.8985623  )
        14           N   tau(  14) = (   0.2500005   0.7216875   0.8985623  )
        15           N   tau(  15) = (  -0.2499995   0.7216875   0.8985623  )
        16           B   tau(  16) = (   0.0000000   0.4330127   0.8985623  )
        17           B   tau(  17) = (   0.1250000   0.6495191   0.8985623  )
        18           B   tau(  18) = (  -0.1250000   0.6495191   0.8985623  )
        19           B   tau(  19) = (   0.3750000   0.2165064   0.8985623  )
        20           B   tau(  20) = (   0.6250000   0.2165064   0.8985623  )
        21           B   tau(  21) = (   0.5000000   0.4330127   0.8985623  )
        22           N   tau(  22) = (   0.5000005   0.2886748   0.8985623  )
        23           B   tau(  23) = (  -0.2500000   0.4330127   0.8985623  )
        24           B   tau(  24) = (   0.2500000   0.4330127   0.8985623  )
        25           B   tau(  25) = (   0.5000000   0.0000000   0.8985623  )
        26           N   tau(  26) = (  -0.1249995   0.5051812   0.8985623  )
        27           N   tau(  27) = (   0.1250005   0.5051812   0.8985623  )
        28           N   tau(  28) = (   0.0000005   0.7216875   0.8985623  )
        29           N   tau(  29) = (   0.5000005   0.7216875   0.8985623  )
        30           N   tau(  30) = (   0.1250005   0.0721685   0.8985623  )
        31           N   tau(  31) = (   0.8750005   0.0721685   0.8985623  )
        32           B   tau(  32) = (   0.0000000   0.0000000   0.8985623  )
        33           Cr1 tau(  33) = (   0.4900000   0.1732051   1.2040735  )
        34           Cr2 tau(  34) = (   0.0100000   0.1732051   1.2040735  )

     number of k points=    15  Gaussian smearing, width (Ry)=  0.0000
                       cart. coord. in units 2pi/alat
        k(    1) = (   0.1666667   0.2886751   0.0000000), wk =   0.0740741
        k(    2) = (   0.1666667  -0.4811252   0.0000000), wk =   0.0740741
        k(    3) = (   0.1666667  -0.0962250   0.0000000), wk =   0.0740741
        k(    4) = (  -0.5000000  -0.8660254   0.0000000), wk =   0.0370370
        k(    5) = (  -0.1666667   0.2886751   0.0000000), wk =   0.0740741
        k(    6) = (   0.3333333   0.0000000   0.0000000), wk =   0.0740741
        k(    7) = (  -0.1666667  -0.4811252   0.0000000), wk =   0.0740741
        k(    8) = (   0.5000000  -0.0962250   0.0000000), wk =   0.0740741
        k(    9) = (  -0.3333333  -0.3849002   0.0000000), wk =   0.0740741
        k(   10) = (   0.5000000   0.0962250   0.0000000), wk =   0.0740741
        k(   11) = (  -0.3333333   0.3849002   0.0000000), wk =   0.0740741
        k(   12) = (  -0.1666667  -0.0962250   0.0000000), wk =   0.0740741
        k(   13) = (  -0.0000000  -0.1924501   0.0000000), wk =   0.0740741
        k(   14) = (   0.5000000  -0.8660254   0.0000000), wk =   0.0370370
        k(   15) = (  -1.0000000   0.0000000   0.0000000), wk =   0.0370370

     Dense  grid:  1741401 G-vectors     FFT dimensions: ( 135, 135, 240)

     Smooth grid:   474235 G-vectors     FFT dimensions: (  90,  90, 160)

     Estimated max dynamical RAM per process >     218.62 MB

     Estimated total dynamical RAM >      10.25 GB
     Generating pointlists ...
     new r_m :   0.0595 (alat units)  1.1269 (a.u.) for type    1
     new r_m :   0.0595 (alat units)  1.1269 (a.u.) for type    2
     new r_m :   0.1348 (alat units)  2.5512 (a.u.) for type    3
     new r_m :   0.1348 (alat units)  2.5512 (a.u.) for type    4

     Initial potential from superposition of free atoms

     starting charge  155.99382, renormalised to  156.00000

     negative rho (up, down):  6.510E-03 4.655E-04
     Starting wfcs are  148 randomized atomic wfcs
     Checking if some PAW data can be deallocated... 

     total cpu time spent up to now is       20.0 secs

     Self-consistent Calculation

     iteration #  1     ecut=    48.00 Ry     beta= 0.50
     Davidson diagonalization with overlap
     ethr =  1.00E-02,  avg # of iterations =  3.0

     negative rho (up, down):  4.704E-03 2.956E-03

     total cpu time spent up to now is       60.0 secs

     total energy              =   -1130.76767458 Ry
     estimated scf accuracy    <      11.37176064 Ry

     total magnetization       =    12.00 Bohr mag/cell
     absolute magnetization    =    12.16 Bohr mag/cell

     iteration #  2     ecut=    48.00 Ry     beta= 0.50
     Davidson diagonalization with overlap
     ethr =  7.29E-03,  avg # of iterations =  2.7

     negative rho (up, down):  7.044E-03 1.084E-02

     total cpu time spent up to now is       97.2 secs

     total energy              =   -1133.09869515 Ry
     estimated scf accuracy    <       3.15429909 Ry

     total magnetization       =    12.00 Bohr mag/cell
     absolute magnetization    =    12.00 Bohr mag/cell

     iteration #  3     ecut=    48.00 Ry     beta= 0.50
     Davidson diagonalization with overlap
     ethr =  2.02E-03,  avg # of iterations =  6.6

     negative rho (up, down):  3.417E-03 5.980E-03

     total cpu time spent up to now is      133.8 secs

     total energy              =   -1133.63890636 Ry
     estimated scf accuracy    <       0.62690183 Ry

     total magnetization       =    12.00 Bohr mag/cell
     absolute magnetization    =    12.05 Bohr mag/cell

     iteration #  4     ecut=    48.00 Ry     beta= 0.50
     Davidson diagonalization with overlap
     ethr =  4.02E-04,  avg # of iterations =  7.3

     negative rho (up, down):  6.871E-03 1.405E-02

     total cpu time spent up to now is      170.8 secs

     total energy              =   -1133.79510932 Ry
     estimated scf accuracy    <       0.25019338 Ry

     total magnetization       =    12.00 Bohr mag/cell
     absolute magnetization    =    12.01 Bohr mag/cell

     iteration #  5     ecut=    48.00 Ry     beta= 0.50
     Davidson diagonalization with overlap
     ethr =  1.60E-04,  avg # of iterations =  9.0

     negative rho (up, down):  4.484E-03 9.758E-03

     total cpu time spent up to now is      208.9 secs

     total energy              =   -1133.80796658 Ry
     estimated scf accuracy    <       0.01737268 Ry

     total magnetization       =    12.00 Bohr mag/cell
     absolute magnetization    =    12.00 Bohr mag/cell

     iteration #  6     ecut=    48.00 Ry     beta= 0.50
     Davidson diagonalization with overlap
     c_bands:  2 eigenvalues not converged
     c_bands:  2 eigenvalues not converged
     c_bands:  1 eigenvalues not converged
     c_bands:  1 eigenvalues not converged
     c_bands:  2 eigenvalues not converged
     c_bands:  1 eigenvalues not converged
     c_bands:  2 eigenvalues not converged
     ethr =  1.11E-05,  avg # of iterations = 13.9

     negative rho (up, down):  3.350E-03 7.810E-03

     total cpu time spent up to now is      264.4 secs

     total energy              =   -1133.81051861 Ry
     estimated scf accuracy    <       0.00418119 Ry

     total magnetization       =    12.00 Bohr mag/cell
     absolute magnetization    =    12.01 Bohr mag/cell

     iteration #  7     ecut=    48.00 Ry     beta= 0.50
     Davidson diagonalization with overlap
     c_bands:  2 eigenvalues not converged
     ethr =  2.68E-06,  avg # of iterations =  9.0

     negative rho (up, down):  3.026E-03 7.561E-03

     total cpu time spent up to now is      307.7 secs

     total energy              =   -1133.81147090 Ry
     estimated scf accuracy    <       0.00030824 Ry

     total magnetization       =    12.00 Bohr mag/cell
     absolute magnetization    =    12.00 Bohr mag/cell

     iteration #  8     ecut=    48.00 Ry     beta= 0.50
     Davidson diagonalization with overlap
     ethr =  1.98E-07,  avg # of iterations =  5.3

     negative rho (up, down):  2.893E-03 7.365E-03

     total cpu time spent up to now is      344.0 secs

     total energy              =   -1133.81155205 Ry
     estimated scf accuracy    <       0.00006194 Ry

     total magnetization       =    12.00 Bohr mag/cell
     absolute magnetization    =    12.00 Bohr mag/cell

     iteration #  9     ecut=    48.00 Ry     beta= 0.50
     Davidson diagonalization with overlap
     ethr =  3.97E-08,  avg # of iterations =  2.1

     negative rho (up, down):  2.854E-03 7.330E-03

     total cpu time spent up to now is      379.6 secs

     total energy              =   -1133.81161221 Ry
     estimated scf accuracy    <       0.00000538 Ry

     total magnetization       =    12.00 Bohr mag/cell
     absolute magnetization    =    12.00 Bohr mag/cell

     iteration # 10     ecut=    48.00 Ry     beta= 0.50
     Davidson diagonalization with overlap
     ethr =  3.45E-09,  avg # of iterations =  4.3

     negative rho (up, down):  2.842E-03 7.327E-03

     total cpu time spent up to now is      416.2 secs

     total energy              =   -1133.81163635 Ry
     estimated scf accuracy    <       0.00000297 Ry

     total magnetization       =    12.00 Bohr mag/cell
     absolute magnetization    =    12.00 Bohr mag/cell

     iteration # 11     ecut=    48.00 Ry     beta= 0.50
     Davidson diagonalization with overlap
     ethr =  1.90E-09,  avg # of iterations =  2.2

     negative rho (up, down):  2.838E-03 7.329E-03

     total cpu time spent up to now is      452.3 secs

     total energy              =   -1133.81164329 Ry
     estimated scf accuracy    <       0.00000023 Ry

     total magnetization       =    12.00 Bohr mag/cell
     absolute magnetization    =    12.00 Bohr mag/cell

     iteration # 12     ecut=    48.00 Ry     beta= 0.50
     Davidson diagonalization with overlap
     ethr =  1.47E-10,  avg # of iterations =  4.4

     negative rho (up, down):  2.836E-03 7.333E-03
 
     Magnetic moment per site:
     atom:    1    charge:    0.8805    magn:    0.0002    constr:    0.0000
     atom:    2    charge:    0.8803    magn:    0.0001    constr:    0.0000
     atom:    3    charge:    0.8804    magn:    0.0013    constr:    0.0000
     atom:    4    charge:    0.8804    magn:    0.0011    constr:    0.0000
     atom:    5    charge:    0.8806    magn:    0.0002    constr:    0.0000
     atom:    6    charge:    0.8803    magn:    0.0001    constr:    0.0000
     atom:    7    charge:    2.8609    magn:    0.0031    constr:    0.0000
     atom:    8    charge:    2.8609    magn:    0.0004    constr:    0.0000
     atom:    9    charge:    2.8606    magn:    0.0070    constr:    0.0000
     atom:   10    charge:    2.8606    magn:    0.0060    constr:    0.0000
     atom:   11    charge:    2.8608    magn:    0.0042    constr:    0.0000
     atom:   12    charge:    2.8609    magn:    0.0004    constr:    0.0000
     atom:   13    charge:    2.8596    magn:    0.0088    constr:    0.0000
     atom:   14    charge:    2.8599    magn:    0.0004    constr:    0.0000
     atom:   15    charge:    2.8599    magn:    0.0004    constr:    0.0000
     atom:   16    charge:    0.8801    magn:    0.0009    constr:    0.0000
     atom:   17    charge:    0.8800    magn:    0.0001    constr:    0.0000
     atom:   18    charge:    0.8800    magn:    0.0001    constr:    0.0000
     atom:   19    charge:    0.8800    magn:    0.0002    constr:    0.0000
     atom:   20    charge:    0.8799    magn:    0.0002    constr:    0.0000
     atom:   21    charge:    0.8798    magn:    0.0009    constr:    0.0000
     atom:   22    charge:    2.8609    magn:    0.0087    constr:    0.0000
     atom:   23    charge:    0.8799    magn:    0.0002    constr:    0.0000
     atom:   24    charge:    0.8799    magn:    0.0002    constr:    0.0000
     atom:   25    charge:    0.8800    magn:    0.0001    constr:    0.0000
     atom:   26    charge:    2.8598    magn:    0.0004    constr:    0.0000
     atom:   27    charge:    2.8598    magn:    0.0004    constr:    0.0000
     atom:   28    charge:    2.8598    magn:    0.0009    constr:    0.0000
     atom:   29    charge:    2.8596    magn:    0.0010    constr:    0.0000
     atom:   30    charge:    2.8593    magn:    0.0070    constr:    0.0000
     atom:   31    charge:    2.8593    magn:    0.0060    constr:    0.0000
     atom:   32    charge:    0.8803    magn:    0.0001    constr:    0.0000
     atom:   33    charge:   12.9316    magn:    4.9139    constr:    0.0000
     atom:   34    charge:   12.9316    magn:    4.9139    constr:    0.0000

     total cpu time spent up to now is      486.3 secs

     End of self-consistent calculation

 ------ SPIN UP ------------


          k = 0.1667 0.2887 0.0000 ( 59267 PWs)   bands (ev):

   -72.4469 -72.4467 -43.9123 -43.9121 -43.9074 -43.9073 -43.9022 -43.9020
   -21.2724 -20.6861 -20.6816 -20.1355 -20.1165 -19.6127 -19.6089 -19.1251
   -18.7226 -18.7173 -18.4882 -18.4714 -18.2205 -18.1110 -18.1040 -17.8752
   -12.5092 -12.2352 -12.2232 -11.8464 -11.8431 -11.6836 -11.2171 -11.2143
   -10.4173 -10.3928 -10.1429 -10.1405  -9.6141  -9.6132  -8.8601  -8.8546
    -8.8451  -8.7912  -8.7875  -8.6216  -8.2224  -8.0673  -8.0517  -7.8560
    -7.8507  -7.4637  -7.4624  -7.3219  -7.2684  -7.2333  -7.2317  -6.9902
    -6.9762  -6.5825  -6.5724  -6.1790  -6.1782  -5.8969  -5.4440  -5.3155
    -5.3023  -5.2256  -4.9536  -4.9109  -4.5305  -4.3818  -4.3673  -4.0039
    -2.2613  -1.6224  -1.4074  -1.3991  -1.3803  -1.3546  -1.3449  -1.3249
    -1.3244  -1.3174  -1.3053  -1.2635   0.6241   0.8005   1.0266   1.1728
     1.2408   1.4432   1.4606   1.5470   1.5730   1.5897

          k = 0.1667-0.4811 0.0000 ( 59291 PWs)   bands (ev):

   -72.4469 -72.4467 -43.9123 -43.9121 -43.9074 -43.9073 -43.9022 -43.9020
   -21.1419 -20.9377 -20.7486 -20.1864 -19.8298 -19.4925 -19.3420 -19.2006
   -19.0399 -18.8053 -18.6660 -18.5699 -18.1746 -18.1150 -17.9482 -17.7494
   -12.3732 -12.1384 -12.0701 -11.9318 -11.7055 -11.6841 -11.5779 -10.9673
   -10.9154 -10.6487 -10.5486  -9.8854  -9.7184  -9.3614  -9.1361  -8.6908
    -8.6480  -8.5785  -8.4143  -8.3920  -8.1868  -8.1510  -8.0880  -8.0754
    -7.7135  -7.6486  -7.5193  -7.4994  -7.3813  -7.1962  -7.0930  -6.8849
    -6.6475  -6.4153  -6.1995  -6.1830  -5.9995  -5.9548  -5.8089  -5.7692
    -5.4768  -5.4267  -5.2313  -5.0668  -4.4684  -4.3738  -4.1158  -3.7913
    -2.2513  -1.6295  -1.4045  -1.3993  -1.3809  -1.3523  -1.3446  -1.3272
    -1.3240  -1.3189  -1.3053  -1.2635   0.6002   0.6570   1.0654   1.1002
     1.1830   1.2184   1.3759   1.7191   1.8061   1.9056

          k = 0.1667-0.0962 0.0000 ( 59226 PWs)   bands (ev):

   -72.4469 -72.4467 -43.9123 -43.9121 -43.9074 -43.9073 -43.9022 -43.9020
   -21.3388 -20.5613 -20.3693 -20.3665 -20.0122 -20.0078 -19.8314 -18.7527
   -18.7501 -18.4041 -18.3881 -18.3831 -18.3001 -18.2821 -18.1016 -18.0985
   -12.5361 -12.5240 -12.4332 -11.6054 -11.6029 -11.4568 -11.4405 -10.9506
   -10.9498  -9.9533  -9.9526  -9.7011  -9.4039  -9.3934  -9.2556  -9.2538
    -9.0671  -9.0653  -8.9478  -8.3482  -8.3476  -7.9279  -7.9225  -7.9066
    -7.8708  -7.7955  -7.6278  -7.6161  -7.1454  -7.1300  -6.9846  -6.9127
    -6.9113  -6.8767  -6.5554  -6.5546  -6.2827  -5.3618  -5.3545  -5.1686
    -5.0907  -4.8417  -4.8096  -4.7812  -4.6579  -4.6144  -4.3709  -4.3643
    -2.2714  -1.6152  -1.4104  -1.3991  -1.3796  -1.3576  -1.3453  -1.3252
    -1.3233  -1.3151  -1.3054  -1.2636   0.6469   0.9366   1.0134   1.1725
     1.2296   1.3314   1.3949   1.5661   1.5966   1.6457

          k =-0.5000-0.8660 0.0000 ( 59292 PWs)   bands (ev):

   -72.4469 -72.4467 -43.9123 -43.9121 -43.9074 -43.9073 -43.9022 -43.9020
   -21.0756 -21.0718 -20.4930 -20.4918 -19.4539 -19.4513 -19.4343 -19.4327
   -19.0177 -19.0146 -18.3550 -18.3511 -18.3390 -18.3337 -17.8174 -17.8162
   -12.0985 -12.0951 -12.0861 -12.0819 -11.9014 -11.9000 -11.3548 -11.3524
   -10.2591 -10.2580 -10.1597 -10.1587 -10.1537 -10.1527  -8.5970  -8.5868
    -8.5743  -8.5715  -8.5688  -8.5654  -7.8876  -7.8874  -7.8854  -7.8845
    -7.8475  -7.8466  -7.7952  -7.7921  -7.5148  -7.5118  -6.6353  -6.6340
    -6.3780  -6.3695  -6.3229  -6.3197  -6.2153  -6.2131  -5.7321  -5.7269
    -5.5705  -5.5675  -4.7547  -4.7499  -4.7210  -4.7105  -3.9041  -3.9014
    -2.0523  -1.9057  -1.3901  -1.3798  -1.3708  -1.3595  -1.3536  -1.3416
    -1.3410  -1.3272  -1.3187  -1.3117   1.0045   1.0216   1.1176   1.1801
     1.3126   1.3622   1.4487   1.5106   1.6325   1.6392

          k =-0.1667 0.2887 0.0000 ( 59267 PWs)   bands (ev):

   -72.4469 -72.4467 -43.9123 -43.9121 -43.9074 -43.9073 -43.9022 -43.9020
   -21.2724 -20.6860 -20.6816 -20.1355 -20.1165 -19.6127 -19.6090 -19.1251
   -18.7225 -18.7173 -18.4882 -18.4714 -18.2205 -18.1110 -18.1041 -17.8752
   -12.5091 -12.2352 -12.2233 -11.8464 -11.8431 -11.6836 -11.2170 -11.2143
   -10.4174 -10.3928 -10.1429 -10.1406  -9.6141  -9.6132  -8.8601  -8.8546
    -8.8450  -8.7912  -8.7875  -8.6215  -8.2224  -8.0673  -8.0517  -7.8560
    -7.8507  -7.4637  -7.4624  -7.3219  -7.2684  -7.2333  -7.2317  -6.9903
    -6.9763  -6.5824  -6.5724  -6.1790  -6.1782  -5.8969  -5.4441  -5.3155
    -5.3023  -5.2255  -4.9536  -4.9109  -4.5306  -4.3818  -4.3673  -4.0039
    -2.2613  -1.6224  -1.4074  -1.3991  -1.3803  -1.3546  -1.3449  -1.3248
    -1.3244  -1.3174  -1.3053  -1.2635   0.6241   0.8005   1.0266   1.1728
     1.2408   1.4432   1.4606   1.5469   1.5730   1.5896

          k = 0.3333 0.0000 0.0000 ( 59267 PWs)   bands (ev):

   -72.4469 -72.4467 -43.9123 -43.9121 -43.9074 -43.9073 -43.9022 -43.9020
   -21.2720 -20.7108 -20.6566 -20.1271 -20.1236 -19.6381 -19.5852 -19.1269
   -18.7390 -18.6963 -18.4821 -18.4795 -18.2157 -18.1332 -18.0881 -17.8746
   -12.5091 -12.2303 -12.2277 -11.8547 -11.8368 -11.6817 -11.2346 -11.1973
   -10.4160 -10.3930 -10.1552 -10.1285  -9.6205  -9.6059  -8.8688  -8.8486
    -8.8402  -8.8124  -8.7673  -8.6222  -8.2239  -8.1264  -7.9919  -7.8529
    -7.8517  -7.4697  -7.4561  -7.3122  -7.2744  -7.2429  -7.2219  -6.9847
    -6.9831  -6.6410  -6.5202  -6.1818  -6.1745  -5.9016  -5.4437  -5.3306
    -5.2794  -5.2259  -4.9409  -4.9267  -4.5209  -4.4070  -4.3521  -4.0038
    -2.1701  -1.7617  -1.4006  -1.3902  -1.3675  -1.3577  -1.3491  -1.3385
    -1.3292  -1.3226  -1.3185  -1.3046   1.0222   1.0271   1.1139   1.1676
     1.2499   1.2853   1.4740   1.4837   1.5358   1.5701

          k =-0.1667-0.4811 0.0000 ( 59291 PWs)   bands (ev):

   -72.4469 -72.4467 -43.9123 -43.9121 -43.9074 -43.9073 -43.9022 -43.9020
   -21.1419 -20.9377 -20.7486 -20.1864 -19.8298 -19.4925 -19.3420 -19.2006
   -19.0399 -18.8053 -18.6660 -18.5699 -18.1746 -18.1150 -17.9482 -17.7494
   -12.3732 -12.1384 -12.0701 -11.9318 -11.7055 -11.6841 -11.5779 -10.9673
   -10.9154 -10.6487 -10.5486  -9.8854  -9.7184  -9.3615  -9.1362  -8.6908
    -8.6480  -8.5785  -8.4142  -8.3920  -8.1868  -8.1510  -8.0881  -8.0755
    -7.7135  -7.6487  -7.5193  -7.4994  -7.3813  -7.1961  -7.0929  -6.8849
    -6.6475  -6.4153  -6.1995  -6.1830  -5.9995  -5.9547  -5.8089  -5.7692
    -5.4768  -5.4267  -5.2313  -5.0668  -4.4684  -4.3738  -4.1158  -3.7913
    -2.2513  -1.6295  -1.4045  -1.3993  -1.3809  -1.3523  -1.3446  -1.3272
    -1.3240  -1.3189  -1.3053  -1.2635   0.6002   0.6570   1.0654   1.1002
     1.1830   1.2184   1.3759   1.7191   1.8061   1.9052

          k = 0.5000-0.0962 0.0000 ( 59291 PWs)   bands (ev):

   -72.4469 -72.4467 -43.9123 -43.9121 -43.9074 -43.9073 -43.9022 -43.9020
   -21.1393 -20.9451 -20.7437 -20.1846 -19.8303 -19.4935 -19.3485 -19.1957
   -19.0407 -18.8052 -18.6568 -18.5763 -18.1624 -18.1315 -17.9449 -17.7493
   -12.3724 -12.1389 -12.0679 -11.9354 -11.7174 -11.6698 -11.5802 -10.9678
   -10.9131 -10.6470 -10.5509  -9.8833  -9.7191  -9.3625  -9.1356  -8.6799
    -8.6486  -8.5765  -8.4248  -8.4179  -8.1847  -8.1291  -8.1008  -8.0638
    -7.7099  -7.6492  -7.5182  -7.5008  -7.3756  -7.1976  -7.0937  -6.8866
    -6.6478  -6.4188  -6.2210  -6.1825  -5.9834  -5.9539  -5.8082  -5.7716
    -5.4779  -5.4226  -5.2111  -5.0832  -4.4447  -4.4029  -4.1106  -3.7921
    -2.0529  -1.9051  -1.3903  -1.3801  -1.3708  -1.3598  -1.3535  -1.3422
    -1.3405  -1.3273  -1.3188  -1.3116   0.9386   1.0152   1.1300   1.1490
     1.2753   1.3256   1.4325   1.5104   1.5488   1.7505

          k =-0.3333-0.3849 0.0000 ( 59291 PWs)   bands (ev):

   -72.4469 -72.4467 -43.9123 -43.9121 -43.9074 -43.9073 -43.9022 -43.9020
   -21.1402 -20.9426 -20.7455 -20.1846 -19.8318 -19.4922 -19.3438 -19.1985
   -19.0437 -18.8036 -18.6583 -18.5752 -18.1648 -18.1286 -17.9450 -17.7495
   -12.3728 -12.1372 -12.0702 -11.9345 -11.7066 -11.6820 -11.5791 -10.9675
   -10.9130 -10.6464 -10.5517  -9.8840  -9.7192  -9.3621  -9.1361  -8.6833
    -8.6473  -8.5786  -8.4164  -8.4122  -8.1864  -8.1367  -8.0880  -8.0777
    -7.7104  -7.6474  -7.5252  -7.4945  -7.3753  -7.1977  -7.0942  -6.8915
    -6.6457  -6.4142  -6.2053  -6.1848  -5.9935  -5.9531  -5.8084  -5.7813
    -5.4777  -5.4183  -5.2111  -5.0828  -4.4475  -4.4008  -4.1101  -3.7920
    -2.1543  -1.7754  -1.3971  -1.3899  -1.3682  -1.3580  -1.3462  -1.3439
    -1.3292  -1.3217  -1.3181  -1.3049   0.8216   0.9303   1.1288   1.1428
     1.1658   1.2988   1.3477   1.4559   1.6938   1.8423

          k = 0.5000 0.0962 0.0000 ( 59291 PWs)   bands (ev):

   -72.4469 -72.4467 -43.9123 -43.9121 -43.9074 -43.9073 -43.9022 -43.9020
   -21.1393 -20.9451 -20.7437 -20.1846 -19.8303 -19.4935 -19.3485 -19.1957
   -19.0407 -18.8051 -18.6568 -18.5763 -18.1624 -18.1315 -17.9449 -17.7493
   -12.3724 -12.1389 -12.0679 -11.9355 -11.7174 -11.6698 -11.5802 -10.9678
   -10.9131 -10.6470 -10.5509  -9.8834  -9.7191  -9.3625  -9.1356  -8.6799
    -8.6486  -8.5765  -8.4248  -8.4179  -8.1847  -8.1291  -8.1008  -8.0638
    -7.7099  -7.6492  -7.5182  -7.5008  -7.3756  -7.1977  -7.0937  -6.8866
    -6.6477  -6.4188  -6.2210  -6.1825  -5.9834  -5.9539  -5.8083  -5.7716
    -5.4780  -5.4226  -5.2111  -5.0831  -4.4447  -4.4029  -4.1106  -3.7921
    -2.0529  -1.9051  -1.3903  -1.3801  -1.3708  -1.3598  -1.3535  -1.3422
    -1.3404  -1.3273  -1.3188  -1.3116   0.9386   1.0152   1.1299   1.1491
     1.2753   1.3255   1.4325   1.5103   1.5488   1.7501

          k =-0.3333 0.3849 0.0000 ( 59291 PWs)   bands (ev):

   -72.4469 -72.4467 -43.9123 -43.9121 -43.9074 -43.9073 -43.9022 -43.9020
   -21.1402 -20.9426 -20.7455 -20.1846 -19.8317 -19.4922 -19.3438 -19.1985
   -19.0437 -18.8036 -18.6583 -18.5752 -18.1648 -18.1286 -17.9450 -17.7495
   -12.3728 -12.1372 -12.0702 -11.9345 -11.7066 -11.6820 -11.5790 -10.9675
   -10.9130 -10.6464 -10.5517  -9.8841  -9.7191  -9.3620  -9.1361  -8.6833
    -8.6473  -8.5786  -8.4164  -8.4123  -8.1864  -8.1367  -8.0880  -8.0777
    -7.7103  -7.6474  -7.5252  -7.4945  -7.3753  -7.1977  -7.0943  -6.8915
    -6.6458  -6.4141  -6.2053  -6.1849  -5.9935  -5.9532  -5.8083  -5.7813
    -5.4776  -5.4183  -5.2111  -5.0828  -4.4475  -4.4008  -4.1100  -3.7920
    -2.1543  -1.7754  -1.3971  -1.3899  -1.3682  -1.3580  -1.3462  -1.3439
    -1.3292  -1.3217  -1.3181  -1.3049   0.8216   0.9303   1.1288   1.1428
     1.1658   1.2989   1.3477   1.4559   1.6938   1.8423

          k =-0.1667-0.0962 0.0000 ( 59226 PWs)   bands (ev):

   -72.4469 -72.4467 -43.9123 -43.9121 -43.9074 -43.9073 -43.9022 -43.9020
   -21.3388 -20.5613 -20.3693 -20.3665 -20.0122 -20.0078 -19.8314 -18.7527
   -18.7501 -18.4042 -18.3881 -18.3831 -18.3001 -18.2821 -18.1016 -18.0985
   -12.5361 -12.5240 -12.4332 -11.6054 -11.6028 -11.4568 -11.4406 -10.9505
   -10.9498  -9.9533  -9.9526  -9.7011  -9.4039  -9.3934  -9.2556  -9.2538
    -9.0671  -9.0654  -8.9478  -8.3482  -8.3476  -7.9279  -7.9224  -7.9066
    -7.8708  -7.7956  -7.6278  -7.6161  -7.1454  -7.1300  -6.9846  -6.9127
    -6.9113  -6.8767  -6.5554  -6.5545  -6.2828  -5.3618  -5.3546  -5.1685
    -5.0908  -4.8417  -4.8096  -4.7812  -4.6579  -4.6144  -4.3709  -4.3643
    -2.2714  -1.6152  -1.4104  -1.3991  -1.3796  -1.3576  -1.3453  -1.3252
    -1.3233  -1.3151  -1.3054  -1.2636   0.6469   0.9366   1.0134   1.1724
     1.2296   1.3314   1.3949   1.5661   1.5966   1.6455

          k =-0.0000-0.1925 0.0000 ( 59226 PWs)   bands (ev):

   -72.4469 -72.4467 -43.9122 -43.9121 -43.9074 -43.9073 -43.9022 -43.9020
   -21.3389 -20.5562 -20.3847 -20.3598 -20.0164 -19.9962 -19.8352 -18.7603
   -18.7388 -18.4125 -18.4083 -18.3747 -18.2808 -18.2794 -18.1125 -18.0930
   -12.5317 -12.5289 -12.4326 -11.6135 -11.5962 -11.4487 -11.4458 -10.9544
   -10.9477  -9.9568  -9.9490  -9.7017  -9.3995  -9.3967  -9.2559  -9.2533
    -9.0669  -9.0664  -8.9485  -8.3502  -8.3446  -7.9262  -7.9250  -7.8848
    -7.8681  -7.7971  -7.6828  -7.5963  -7.1528  -7.0948  -6.9831  -6.9171
    -6.9084  -6.8917  -6.5593  -6.5498  -6.2834  -5.3831  -5.3231  -5.1689
    -5.0904  -4.8547  -4.8462  -4.7705  -4.6178  -4.6148  -4.3986  -4.3474
    -2.3032  -1.5675  -1.4128  -1.4026  -1.3844  -1.3582  -1.3416  -1.3262
    -1.3214  -1.3122  -1.3000  -1.2200   0.4752   0.8593   0.9599   1.1385
     1.2321   1.3500   1.4572   1.5981   1.6563   1.6573

          k = 0.5000-0.8660 0.0000 ( 59292 PWs)   bands (ev):

   -72.4469 -72.4467 -43.9123 -43.9121 -43.9074 -43.9073 -43.9022 -43.9020
   -21.0756 -21.0718 -20.4930 -20.4918 -19.4539 -19.4513 -19.4343 -19.4327
   -19.0176 -19.0147 -18.3550 -18.3511 -18.3390 -18.3337 -17.8174 -17.8162
   -12.0985 -12.0951 -12.0860 -12.0819 -11.9014 -11.9000 -11.3547 -11.3524
   -10.2591 -10.2580 -10.1597 -10.1587 -10.1537 -10.1527  -8.5970  -8.5868
    -8.5742  -8.5716  -8.5687  -8.5655  -7.8875  -7.8874  -7.8853  -7.8845
    -7.8476  -7.8466  -7.7952  -7.7921  -7.5149  -7.5119  -6.6352  -6.6339
    -6.3780  -6.3695  -6.3229  -6.3197  -6.2151  -6.2131  -5.7321  -5.7269
    -5.5706  -5.5676  -4.7546  -4.7499  -4.7210  -4.7105  -3.9042  -3.9014
    -2.0523  -1.9057  -1.3901  -1.3798  -1.3708  -1.3595  -1.3536  -1.3417
    -1.3409  -1.3272  -1.3188  -1.3117   1.0045   1.0216   1.1176   1.1801
     1.3127   1.3619   1.4483   1.5104   1.6323   1.6392

          k =-1.0000 0.0000 0.0000 ( 59292 PWs)   bands (ev):

   -72.4469 -72.4467 -43.9123 -43.9121 -43.9074 -43.9073 -43.9022 -43.9020
   -21.0994 -21.0452 -20.5066 -20.4827 -19.4587 -19.4456 -19.4398 -19.4219
   -19.0386 -18.9963 -18.3819 -18.3772 -18.3100 -18.3097 -17.8274 -17.8080
   -12.1206 -12.1127 -12.0638 -12.0602 -11.9119 -11.8907 -11.3749 -11.3343
   -10.2743 -10.2568 -10.1625 -10.1572 -10.1472 -10.1452  -8.6534  -8.5925
    -8.5912  -8.5474  -8.5458  -8.5176  -7.9014  -7.9014  -7.8827  -7.8781
    -7.8543  -7.8384  -7.8259  -7.7633  -7.5381  -7.4910  -6.6399  -6.6270
    -6.3954  -6.3516  -6.3269  -6.2943  -6.2334  -6.1981  -5.7606  -5.7097
    -5.5909  -5.5474  -4.8119  -4.7788  -4.6793  -4.6671  -3.9278  -3.8804
    -2.2853  -1.5785  -1.4070  -1.4029  -1.3858  -1.3526  -1.3406  -1.3254
    -1.3239  -1.3159  -1.2999  -1.2209   0.4384   0.5984   1.0637   1.1115
     1.1437   1.4271   1.5742   1.5956   1.6152   1.8228

 ------ SPIN DOWN ----------


          k = 0.1667 0.2887 0.0000 ( 59267 PWs)   bands (ev):

   -68.0740 -68.0738 -39.5762 -39.5760 -39.5679 -39.5676 -39.5648 -39.5646
   -21.2652 -20.6787 -20.6750 -20.1273 -20.1106 -19.6055 -19.6024 -19.1180
   -18.7140 -18.7100 -18.4800 -18.4653 -18.2118 -18.1037 -18.0986 -17.8680
   -12.5044 -12.2293 -12.2194 -11.8417 -11.8390 -11.6795 -11.2120 -11.2096
   -10.4121 -10.3879 -10.1375 -10.1356  -9.6093  -9.6085  -8.8492  -8.8398
    -8.8334  -8.7864  -8.7832  -8.6171  -8.2181  -8.0400  -8.0305  -7.8512
    -7.8464  -7.4579  -7.4569  -7.2900  -7.2542  -7.2288  -7.2274  -6.9850
    -6.9726  -6.5596  -6.5529  -6.1742  -6.1736  -5.8744  -5.4386  -5.2888
    -5.2815  -5.2207  -4.9279  -4.8965  -4.5069  -4.3607  -4.3526  -3.9848
    -0.2240   0.6553   1.0605   1.1928   1.3580   1.4156   1.4390   1.5021
     1.5525   1.8198   1.8878   2.1164   2.2131   2.2652   2.2927   2.4194
     2.4415   2.5338   2.5418   2.5906   2.6047   2.6584

          k = 0.1667-0.4811 0.0000 ( 59291 PWs)   bands (ev):

   -68.0740 -68.0738 -39.5762 -39.5760 -39.5679 -39.5676 -39.5648 -39.5646
   -21.1341 -20.9317 -20.7414 -20.1791 -19.8229 -19.4854 -19.3352 -19.1932
   -19.0329 -18.7982 -18.6565 -18.5643 -18.1642 -18.1112 -17.9406 -17.7420
   -12.3684 -12.1335 -12.0656 -11.9274 -11.7016 -11.6791 -11.5734 -10.9623
   -10.9100 -10.6433 -10.5441  -9.8799  -9.7138  -9.3562  -9.1314  -8.6601
    -8.6432  -8.5730  -8.4100  -8.3754  -8.1822  -8.1246  -8.0835  -8.0712
    -7.7084  -7.6441  -7.5146  -7.4954  -7.3562  -7.1910  -7.0885  -6.8631
    -6.6418  -6.3931  -6.1801  -6.1771  -5.9765  -5.9490  -5.8040  -5.7486
    -5.4721  -5.4037  -5.2014  -5.0531  -4.4392  -4.3642  -4.0953  -3.7727
    -0.1817   0.6238   1.0115   1.1145   1.1379   1.2734   1.3553   1.7648
     1.8520   1.8698   2.0418   2.1041   2.2529   2.2956   2.3009   2.3685
     2.4663   2.4764   2.5213   2.5250   2.5682   2.6596

          k = 0.1667-0.0962 0.0000 ( 59226 PWs)   bands (ev):

   -68.0740 -68.0738 -39.5762 -39.5760 -39.5679 -39.5676 -39.5648 -39.5646
   -21.3317 -20.5533 -20.3626 -20.3604 -20.0043 -20.0009 -19.8254 -18.7445
   -18.7424 -18.3958 -18.3817 -18.3753 -18.2914 -18.2758 -18.0948 -18.0926
   -12.5303 -12.5202 -12.4285 -11.6007 -11.5987 -11.4510 -11.4368 -10.9457
   -10.9451  -9.9485  -9.9478  -9.6958  -9.3989  -9.3889  -9.2500  -9.2486
    -9.0624  -9.0610  -8.9224  -8.3427  -8.3421  -7.9232  -7.9182  -7.8770
    -7.8628  -7.7913  -7.6054  -7.5988  -7.1174  -7.1082  -6.9797  -6.9081
    -6.9071  -6.8610  -6.5507  -6.5500  -6.2782  -5.3360  -5.3317  -5.1635
    -5.0857  -4.8174  -4.7910  -4.7596  -4.6324  -4.5998  -4.3515  -4.3476
    -0.2626   0.6893   1.0851   1.1151   1.2304   1.4659   1.4897   1.5523
     1.7988   1.9067   1.9988   2.0398   2.0753   2.1425   2.2930   2.4048
     2.4457   2.4951   2.5381   2.5690   2.6248   2.6642

          k =-0.5000-0.8660 0.0000 ( 59292 PWs)   bands (ev):

   -68.0740 -68.0738 -39.5762 -39.5760 -39.5679 -39.5676 -39.5648 -39.5646
   -21.0681 -21.0649 -20.4863 -20.4852 -19.4450 -19.4429 -19.4281 -19.4266
   -19.0106 -19.0081 -18.3463 -18.3429 -18.3321 -18.3279 -17.8101 -17.8091
   -12.0924 -12.0895 -12.0820 -12.0782 -11.8972 -11.8960 -11.3498 -11.3477
   -10.2541 -10.2531 -10.1539 -10.1530 -10.1492 -10.1483  -8.5697  -8.5694
    -8.5664  -8.5643  -8.5618  -8.5605  -7.8828  -7.8827  -7.8808  -7.8801
    -7.8419  -7.8410  -7.7738  -7.7715  -7.5104  -7.5078  -6.6303  -6.6292
    -6.3438  -6.3385  -6.3072  -6.3047  -6.2100  -6.2081  -5.7114  -5.7078
    -5.5655  -5.5629  -4.7296  -4.7258  -4.7026  -4.6953  -3.8848  -3.8827
     0.0407   0.1648   1.0357   1.0486   1.4610   1.4757   1.4985   1.5159
     1.7668   1.7722   2.0660   2.0777   2.2110   2.2416   2.4059   2.4137
     2.4643   2.4706   2.5259   2.5387   2.6067   2.6417

          k =-0.1667 0.2887 0.0000 ( 59267 PWs)   bands (ev):

   -68.0740 -68.0738 -39.5762 -39.5760 -39.5679 -39.5676 -39.5648 -39.5646
   -21.2652 -20.6786 -20.6750 -20.1273 -20.1106 -19.6055 -19.6024 -19.1180
   -18.7140 -18.7101 -18.4800 -18.4653 -18.2118 -18.1037 -18.0987 -17.8680
   -12.5044 -12.2293 -12.2194 -11.8417 -11.8390 -11.6795 -11.2120 -11.2096
   -10.4121 -10.3879 -10.1375 -10.1356  -9.6093  -9.6085  -8.8491  -8.8398
    -8.8334  -8.7864  -8.7833  -8.6171  -8.2181  -8.0400  -8.0305  -7.8512
    -7.8464  -7.4579  -7.4569  -7.2900  -7.2542  -7.2287  -7.2274  -6.9850
    -6.9727  -6.5595  -6.5529  -6.1742  -6.1735  -5.8744  -5.4387  -5.2888
    -5.2815  -5.2206  -4.9279  -4.8965  -4.5069  -4.3607  -4.3526  -3.9848
    -0.2240   0.6553   1.0606   1.1928   1.3580   1.4156   1.4389   1.5021
     1.5524   1.8198   1.8878   2.1164   2.2132   2.2652   2.2928   2.4192
     2.4414   2.5334   2.5419   2.5905   2.6049   2.6583

          k = 0.3333 0.0000 0.0000 ( 59267 PWs)   bands (ev):

   -68.0740 -68.0738 -39.5762 -39.5760 -39.5679 -39.5676 -39.5648 -39.5646
   -21.2649 -20.7001 -20.6535 -20.1206 -20.1165 -19.6271 -19.5820 -19.1192
   -18.7279 -18.6930 -18.4743 -18.4725 -18.2084 -18.1218 -18.0849 -17.8675
   -12.5044 -12.2253 -12.2231 -11.8494 -11.8329 -11.6779 -11.2280 -11.1941
   -10.4111 -10.3880 -10.1482 -10.1252  -9.6149  -9.6022  -8.8512  -8.8431
    -8.8268  -8.8054  -8.7650  -8.6176  -8.2193  -8.0846  -7.9857  -7.8486
    -7.8473  -7.4629  -7.4518  -7.2830  -7.2589  -7.2372  -7.2188  -6.9800
    -6.9786  -6.6026  -6.5135  -6.1767  -6.1704  -5.8770  -5.4385  -5.3029
    -5.2631  -5.2209  -4.9184  -4.9077  -4.5017  -4.3800  -4.3389  -3.9845
    -0.1469   0.4164   1.0753   1.1749   1.3557   1.4698   1.4813   1.5065
     1.5868   1.8408   2.0725   2.1120   2.2479   2.2875   2.3125   2.4245
     2.4509   2.4822   2.5489   2.5640   2.6050   2.6361

          k =-0.1667-0.4811 0.0000 ( 59291 PWs)   bands (ev):

   -68.0740 -68.0738 -39.5762 -39.5760 -39.5679 -39.5676 -39.5648 -39.5646
   -21.1341 -20.9317 -20.7414 -20.1791 -19.8229 -19.4854 -19.3352 -19.1932
   -19.0329 -18.7982 -18.6566 -18.5643 -18.1642 -18.1112 -17.9406 -17.7420
   -12.3684 -12.1335 -12.0656 -11.9274 -11.7016 -11.6791 -11.5734 -10.9623
   -10.9101 -10.6433 -10.5441  -9.8799  -9.7138  -9.3563  -9.1315  -8.6601
    -8.6431  -8.5730  -8.4100  -8.3754  -8.1822  -8.1246  -8.0836  -8.0712
    -7.7084  -7.6441  -7.5145  -7.4954  -7.3562  -7.1910  -7.0885  -6.8631
    -6.6418  -6.3931  -6.1801  -6.1772  -5.9765  -5.9490  -5.8040  -5.7486
    -5.4722  -5.4037  -5.2014  -5.0531  -4.4391  -4.3642  -4.0953  -3.7727
    -0.1817   0.6238   1.0115   1.1145   1.1379   1.2734   1.3554   1.7648
     1.8521   1.8697   2.0418   2.1041   2.2529   2.2956   2.3009   2.3684
     2.4663   2.4765   2.5213   2.5250   2.5682   2.6600

          k = 0.5000-0.0962 0.0000 ( 59291 PWs)   bands (ev):

   -68.0740 -68.0738 -39.5762 -39.5760 -39.5679 -39.5676 -39.5648 -39.5646
   -21.1321 -20.9373 -20.7377 -20.1778 -19.8233 -19.4861 -19.3399 -19.1896
   -19.0334 -18.7980 -18.6500 -18.5689 -18.1550 -18.1232 -17.9384 -17.7420
   -12.3677 -12.1340 -12.0638 -11.9304 -11.7118 -11.6670 -11.5752 -10.9628
   -10.9082 -10.6419 -10.5460  -9.8782  -9.7144  -9.3570  -9.1310  -8.6539
    -8.6436  -8.5715  -8.4131  -8.3937  -8.1805  -8.1125  -8.0944  -8.0612
    -7.7056  -7.6446  -7.5136  -7.4965  -7.3529  -7.1920  -7.0891  -6.8640
    -6.6421  -6.3951  -6.1907  -6.1779  -5.9674  -5.9486  -5.8034  -5.7499
    -5.4731  -5.4018  -5.1899  -5.0624  -4.4248  -4.3817  -4.0924  -3.7730
     0.0314   0.1779   1.0102   1.1108   1.1467   1.2909   1.6358   1.7467
     1.7901   2.0093   2.0388   2.1756   2.2272   2.2959   2.3174   2.3956
     2.4494   2.5093   2.5314   2.5573   2.6078   2.6348

          k =-0.3333-0.3849 0.0000 ( 59291 PWs)   bands (ev):

   -68.0740 -68.0738 -39.5762 -39.5760 -39.5679 -39.5676 -39.5648 -39.5646
   -21.1328 -20.9354 -20.7390 -20.1778 -19.8244 -19.4851 -19.3365 -19.1917
   -19.0356 -18.7969 -18.6510 -18.5682 -18.1567 -18.1213 -17.9385 -17.7421
   -12.3681 -12.1325 -12.0657 -11.9296 -11.7025 -11.6773 -11.5743 -10.9624
   -10.9082 -10.6414 -10.5466  -9.8787  -9.7144  -9.3568  -9.1314  -8.6558
    -8.6426  -8.5730  -8.4111  -8.3871  -8.1819  -8.1168  -8.0835  -8.0729
    -7.7060  -7.6431  -7.5194  -7.4914  -7.3527  -7.1922  -7.0894  -6.8668
    -6.6405  -6.3925  -6.1822  -6.1794  -5.9730  -5.9479  -5.8036  -5.7551
    -5.4729  -5.3995  -5.1900  -5.0622  -4.4262  -4.3805  -4.0922  -3.7730
    -0.0817   0.3531   1.0125   1.0788   1.1868   1.2794   1.5104   1.7601
     1.9356   1.9580   2.0478   2.0606   2.2145   2.2998   2.3059   2.4278
     2.4470   2.4742   2.5239   2.5628   2.5931   2.6481

          k = 0.5000 0.0962 0.0000 ( 59291 PWs)   bands (ev):

   -68.0740 -68.0738 -39.5762 -39.5760 -39.5679 -39.5676 -39.5648 -39.5646
   -21.1321 -20.9373 -20.7377 -20.1778 -19.8233 -19.4861 -19.3400 -19.1896
   -19.0334 -18.7980 -18.6500 -18.5690 -18.1550 -18.1232 -17.9384 -17.7420
   -12.3677 -12.1340 -12.0637 -11.9305 -11.7118 -11.6670 -11.5752 -10.9627
   -10.9082 -10.6419 -10.5460  -9.8782  -9.7144  -9.3570  -9.1310  -8.6539
    -8.6436  -8.5715  -8.4131  -8.3937  -8.1805  -8.1125  -8.0944  -8.0612
    -7.7056  -7.6445  -7.5137  -7.4966  -7.3529  -7.1921  -7.0890  -6.8640
    -6.6420  -6.3951  -6.1907  -6.1779  -5.9675  -5.9486  -5.8035  -5.7499
    -5.4731  -5.4018  -5.1899  -5.0624  -4.4248  -4.3816  -4.0924  -3.7730
     0.0314   0.1779   1.0103   1.1109   1.1467   1.2909   1.6358   1.7467
     1.7901   2.0093   2.0388   2.1756   2.2272   2.2959   2.3173   2.3955
     2.4494   2.5093   2.5314   2.5571   2.6078   2.6345

          k =-0.3333 0.3849 0.0000 ( 59291 PWs)   bands (ev):

   -68.0740 -68.0738 -39.5762 -39.5760 -39.5679 -39.5676 -39.5648 -39.5646
   -21.1328 -20.9354 -20.7390 -20.1778 -19.8244 -19.4851 -19.3365 -19.1917
   -19.0356 -18.7970 -18.6510 -18.5682 -18.1567 -18.1213 -17.9385 -17.7421
   -12.3680 -12.1325 -12.0657 -11.9296 -11.7025 -11.6774 -11.5742 -10.9625
   -10.9081 -10.6414 -10.5466  -9.8788  -9.7144  -9.3568  -9.1314  -8.6558
    -8.6426  -8.5729  -8.4111  -8.3871  -8.1820  -8.1168  -8.0834  -8.0729
    -7.7059  -7.6431  -7.5194  -7.4914  -7.3527  -7.1921  -7.0895  -6.8668
    -6.6406  -6.3925  -6.1822  -6.1795  -5.9730  -5.9480  -5.8036  -5.7551
    -5.4728  -5.3994  -5.1901  -5.0622  -4.4262  -4.3805  -4.0921  -3.7730
    -0.0817   0.3531   1.0125   1.0788   1.1868   1.2795   1.5104   1.7601
     1.9356   1.9580   2.0478   2.0606   2.2144   2.2998   2.3059   2.4279
     2.4471   2.4741   2.5239   2.5629   2.5931   2.6451

          k =-0.1667-0.0962 0.0000 ( 59226 PWs)   bands (ev):

   -68.0740 -68.0738 -39.5762 -39.5760 -39.5679 -39.5676 -39.5648 -39.5646
   -21.3317 -20.5533 -20.3626 -20.3604 -20.0043 -20.0009 -19.8254 -18.7445
   -18.7424 -18.3958 -18.3817 -18.3753 -18.2914 -18.2758 -18.0948 -18.0926
   -12.5303 -12.5202 -12.4285 -11.6007 -11.5986 -11.4510 -11.4369 -10.9457
   -10.9451  -9.9485  -9.9478  -9.6958  -9.3988  -9.3889  -9.2500  -9.2487
    -9.0624  -9.0610  -8.9224  -8.3427  -8.3422  -7.9232  -7.9182  -7.8770
    -7.8627  -7.7913  -7.6054  -7.5988  -7.1174  -7.1082  -6.9798  -6.9081
    -6.9070  -6.8611  -6.5507  -6.5500  -6.2782  -5.3360  -5.3317  -5.1634
    -5.0858  -4.8174  -4.7910  -4.7596  -4.6324  -4.5998  -4.3515  -4.3477
    -0.2626   0.6893   1.0851   1.1151   1.2304   1.4659   1.4897   1.5523
     1.7988   1.9067   1.9987   2.0398   2.0753   2.1425   2.2929   2.4049
     2.4457   2.4952   2.5380   2.5691   2.6250   2.6615

          k =-0.0000-0.1925 0.0000 ( 59226 PWs)   bands (ev):

   -68.0740 -68.0738 -39.5762 -39.5760 -39.5679 -39.5676 -39.5648 -39.5646
   -21.3318 -20.5495 -20.3756 -20.3538 -20.0089 -19.9908 -19.8283 -18.7515
   -18.7328 -18.4009 -18.3977 -18.3689 -18.2766 -18.2748 -18.1041 -18.0871
   -12.5264 -12.5245 -12.4281 -11.6081 -11.5925 -11.4440 -11.4415 -10.9491
   -10.9431  -9.9514  -9.9448  -9.6963  -9.3949  -9.3919  -9.2507  -9.2479
    -9.0626  -9.0616  -8.9227  -8.3447  -8.3393  -7.9213  -7.9208  -7.8696
    -7.8566  -7.7924  -7.6404  -7.5833  -7.1263  -7.0836  -6.9786  -6.9121
    -6.9043  -6.8694  -6.5543  -6.5459  -6.2787  -5.3524  -5.3100  -5.1638
    -5.0855  -4.8222  -4.8140  -4.7536  -4.6071  -4.6026  -4.3707  -4.3343
    -0.2879   0.8331   1.0878   1.1026   1.2463   1.4351   1.4788   1.5046
     1.7947   1.8575   1.9042   1.9461   2.0286   2.2385   2.3521   2.3708
     2.3933   2.5219   2.5331   2.6029   2.6651   2.7004

          k = 0.5000-0.8660 0.0000 ( 59292 PWs)   bands (ev):

   -68.0740 -68.0738 -39.5762 -39.5760 -39.5679 -39.5676 -39.5648 -39.5646
   -21.0681 -21.0649 -20.4863 -20.4852 -19.4450 -19.4429 -19.4281 -19.4266
   -19.0105 -19.0081 -18.3463 -18.3429 -18.3321 -18.3279 -17.8101 -17.8091
   -12.0924 -12.0896 -12.0819 -12.0783 -11.8972 -11.8960 -11.3498 -11.3477
   -10.2542 -10.2532 -10.1539 -10.1530 -10.1492 -10.1483  -8.5696  -8.5693
    -8.5665  -8.5642  -8.5618  -8.5605  -7.8828  -7.8827  -7.8808  -7.8801
    -7.8419  -7.8411  -7.7738  -7.7715  -7.5105  -7.5078  -6.6303  -6.6292
    -6.3438  -6.3385  -6.3072  -6.3047  -6.2099  -6.2081  -5.7114  -5.7078
    -5.5656  -5.5630  -4.7296  -4.7258  -4.7026  -4.6952  -3.8849  -3.8827
     0.0407   0.1648   1.0357   1.0487   1.4610   1.4757   1.4985   1.5158
     1.7667   1.7722   2.0659   2.0778   2.2109   2.2418   2.4061   2.4135
     2.4642   2.4705   2.5260   2.5388   2.6068   2.6415

          k =-1.0000 0.0000 0.0000 ( 59292 PWs)   bands (ev):

   -68.0740 -68.0738 -39.5762 -39.5760 -39.5679 -39.5676 -39.5648 -39.5646
   -21.0889 -21.0420 -20.4979 -20.4769 -19.4495 -19.4384 -19.4328 -19.4175
   -19.0276 -18.9930 -18.3683 -18.3644 -18.3084 -18.3081 -17.8186 -17.8019
   -12.1130 -12.1059 -12.0619 -12.0580 -11.9067 -11.8874 -11.3680 -11.3311
   -10.2667 -10.2521 -10.1565 -10.1528 -10.1431 -10.1416  -8.6123  -8.5859
    -8.5838  -8.5452  -8.5439  -8.5116  -7.8951  -7.8940  -7.8786  -7.8740
    -7.8356  -7.8351  -7.8019  -7.7510  -7.5310  -7.4890  -6.6344  -6.6234
    -6.3567  -6.3291  -6.3111  -6.2856  -6.2259  -6.1945  -5.7327  -5.6924
    -5.5832  -5.5454  -4.7708  -4.7446  -4.6732  -4.6650  -3.9016  -3.8676
    -0.2151   0.7836   1.0436   1.0537   1.2693   1.3545   1.4391   1.5803
     1.6163   1.6873   1.8825   2.1499   2.2050   2.3142   2.3192   2.4057
     2.4170   2.5141   2.5669   2.5783   2.6275   2.6644

     the Fermi energy is    -0.8221 ev

!    total energy              =   -1133.81165140 Ry

     total all-electron energy =     -6753.487354 Ry
     estimated scf accuracy    <       0.00000002 Ry
     smearing contrib. (-TS)   =      -0.00000000 Ry
     internal energy E=F+TS    =   -1133.81165140 Ry

     The total energy is F=E-TS. E is the sum of the following terms:
     one-electron contribution =   -3914.16286315 Ry
     hartree contribution      =    1985.68976522 Ry
     xc contribution           =    -186.20323315 Ry
     ewald contribution        =    1340.23175729 Ry
     DFT-D3 Dispersion         =      -0.13938100 Ry
     one-center paw contrib.   =    -359.22769660 Ry

     total magnetization       =    12.00 Bohr mag/cell
     absolute magnetization    =    12.00 Bohr mag/cell

     convergence has been achieved in  12 iterations

     Writing output data file ./mytmp/Crdimer0.24-0.2.save/
 
     init_run     :     18.58s CPU     19.70s WALL (       1 calls)
     electrons    :    438.68s CPU    466.46s WALL (       1 calls)

     Called by init_run:
     wfcinit      :     13.73s CPU     14.52s WALL (       1 calls)
     potinit      :      1.52s CPU      1.60s WALL (       1 calls)
     hinit0       :      1.52s CPU      1.59s WALL (       1 calls)

     Called by electrons:
     c_bands      :    355.29s CPU    375.98s WALL (      12 calls)
     sum_band     :     64.45s CPU     68.71s WALL (      12 calls)
     v_of_rho     :      3.95s CPU      4.25s WALL (      13 calls)
     newd         :      8.26s CPU     10.81s WALL (      13 calls)
     PAW_pot      :      6.36s CPU      6.42s WALL (      13 calls)
     mix_rho      :      0.83s CPU      0.84s WALL (      12 calls)

     Called by c_bands:
     init_us_2    :      4.34s CPU      4.38s WALL (     750 calls)
     cegterg      :    344.72s CPU    365.35s WALL (     360 calls)

     Called by *egterg:
     cdiaghg      :     22.71s CPU     35.96s WALL (    2455 calls)
     h_psi        :    222.38s CPU    229.75s WALL (    2485 calls)
     s_psi        :     24.73s CPU     24.76s WALL (    2485 calls)
     g_psi        :      0.66s CPU      0.68s WALL (    2095 calls)

     Called by h_psi:
     h_psi:calbec :     25.50s CPU     25.99s WALL (    2485 calls)
     vloc_psi     :    169.79s CPU    176.59s WALL (    2485 calls)
     add_vuspsi   :     25.14s CPU     25.21s WALL (    2485 calls)

     General routines
     calbec       :     33.54s CPU     34.18s WALL (    2845 calls)
     fft          :      3.75s CPU      4.40s WALL (     319 calls)
     ffts         :      0.09s CPU      0.10s WALL (      50 calls)
     fftw         :    172.58s CPU    179.41s WALL (  226522 calls)
     interpolate  :      0.35s CPU      0.38s WALL (      26 calls)
 
     Parallel routines
     fft_scatt_xy :     27.13s CPU     28.05s WALL (  226891 calls)
     fft_scatt_yz :     67.70s CPU     71.46s WALL (  226891 calls)
 
     PWSCF        :   7m39.24s CPU   8m10.21s WALL

 
   This run was terminated on:  22: 9:56  29Mar2021            

=------------------------------------------------------------------------------=
   JOB DONE.
=------------------------------------------------------------------------------=
