
     Program PWSCF v.6.7MaX starts on 29Mar2021 at 22: 9:57 

     This program is part of the open-source Quantum ESPRESSO suite
     for quantum simulation of materials; please cite
         "P. Giannozzi et al., J. Phys.:Condens. Matter 21 395502 (2009);
         "P. Giannozzi et al., J. Phys.:Condens. Matter 29 465901 (2017);
          URL http://www.quantum-espresso.org", 
     in publications or presentations arising from this work. More details at
     http://www.quantum-espresso.org/quote

     Parallel version (MPI), running on    48 processors

     MPI processes distributed on     1 nodes
     R & G space division:  proc/nbgrp/npool/nimage =      48
     Reading input from Crdimer0.24-0.3.scf.in

     Current dimensions of program PWSCF are:
     Max number of different atomic species (ntypx) = 10
     Max number of k-points (npk) =  40000
     Max angular momentum in pseudopotentials (lmaxx) =  3
     file N.pbe-n-kjpaw_psl.1.0.0.UPF: wavefunction(s)  2S renormalized
     file Cr.pbe-spn-kjpaw_psl.1.0.0.UPF: wavefunction(s)  3S 3P 3D renormalized
     file Cr.pbe-spn-kjpaw_psl.1.0.0.UPF: wavefunction(s)  3S 3P 3D renormalized

     --------------------------------------------
     Parameters for DFT-D3 Dispersion Correction:
     --------------------------------------------
       Reference C6 values for interpolation: 

         atom   Coordination number   C6
         B          0.000           214.36
         B          0.971           150.74
         B          1.944           106.23
         B          2.913            62.89
         B          4.586            56.06
         N          0.000            50.54
         N          0.994            44.25
         N          2.014            39.35
         N          2.990            31.16
         Cr1        0.000          1381.48
         Cr1        1.827           571.38
         Cr1       10.619           306.69
         Cr2        0.000          1381.48
         Cr2        1.827           571.38
         Cr2       10.619           306.69

       Values used:

         atom   Coordination number  R0_AB[au]  C6      C8
         B          3.350            3.039     62.88   2505.62
         B          3.335            3.039     62.89   2506.00
         B          3.336            3.039     62.89   2505.99
         B          3.336            3.039     62.89   2505.99
         B          3.355            3.039     62.88   2505.49
         B          3.335            3.039     62.89   2506.01
         N          3.137            2.478     31.22    688.67
         N          3.135            2.478     31.22    688.69
         N          3.137            2.478     31.22    688.67
         N          3.137            2.478     31.22    688.67
         N          3.138            2.478     31.22    688.66
         N          3.135            2.478     31.22    688.69
         N          3.165            2.478     31.21    688.44
         N          3.134            2.478     31.22    688.70
         N          3.134            2.478     31.22    688.70
         B          3.344            3.039     62.89   2505.78
         B          3.335            3.039     62.89   2506.00
         B          3.335            3.039     62.89   2506.01
         B          3.355            3.039     62.88   2505.49
         B          3.350            3.039     62.88   2505.62
         B          3.344            3.039     62.89   2505.78
         N          3.165            2.478     31.21    688.44
         B          3.337            3.039     62.89   2505.97
         B          3.338            3.039     62.89   2505.95
         B          3.337            3.039     62.89   2505.96
         N          3.135            2.478     31.22    688.69
         N          3.135            2.478     31.22    688.69
         N          3.134            2.478     31.22    688.70
         N          3.134            2.478     31.22    688.70
         N          3.137            2.478     31.22    688.67
         N          3.137            2.478     31.22    688.67
         B          3.337            3.039     62.89   2505.96
         Cr1        0.102            3.252   1381.48 127494.76
         Cr2        0.102            3.252   1381.48 127494.76

         Molecular C6 ( Ry / a.u.^6 ) =     79164.73


     Subspace diagonalization in iterative solution of the eigenvalue problem:
     one sub-group per band group will be used
     scalapack distributed-memory algorithm (size of sub-group:  6*  6 procs)

 
     Parallelization info
     --------------------
     sticks:   dense  smooth     PW     G-vecs:    dense   smooth      PW
     Min         235      98     26                36277     9874    1408
     Max         236      99     27                36282     9883    1425
     Sum       11311    4741   1285              1741401   474235   68095
 


     bravais-lattice index     =            4
     lattice parameter (alat)  =      18.9275  a.u.
     unit-cell volume          =   10553.3021 (a.u.)^3
     number of atoms/cell      =           34
     number of atomic types    =            4
     number of electrons       =       156.00
     number of Kohn-Sham states=           94
     kinetic-energy cutoff     =      48.0000  Ry
     charge density cutoff     =     457.0000  Ry
     scf convergence threshold =      1.0E-07
     mixing beta               =       0.5000
     number of iterations used =            8  plain     mixing
     Exchange-correlation= SLA  PW   PBX  PBC
                           (   1   4   3   4   0   0   0)

     celldm(1)=  18.927497  celldm(2)=   0.000000  celldm(3)=   1.797125
     celldm(4)=   0.000000  celldm(5)=   0.000000  celldm(6)=   0.000000

     crystal axes: (cart. coord. in units of alat)
               a(1) = (   1.000000   0.000000   0.000000 )  
               a(2) = (  -0.500000   0.866025   0.000000 )  
               a(3) = (   0.000000   0.000000   1.797125 )  

     reciprocal axes: (cart. coord. in units 2 pi/alat)
               b(1) = (  1.000000  0.577350  0.000000 )  
               b(2) = (  0.000000  1.154701  0.000000 )  
               b(3) = (  0.000000  0.000000  0.556444 )  


     PseudoPot. # 1 for B  read from file:
     /home/sf05/q-e-qe-6.7MaX-Release/pseudo/B.pbe-n-kjpaw_psl.1.0.0.UPF
     MD5 check sum: d9c678ba5d3b2fd7b74e61139c9288d8
     Pseudo is Projector augmented-wave + core cor, Zval =  3.0
     Generated using "atomic" code by A. Dal Corso  v.5.1.2
     Shape of augmentation charge: PSQ
     Using radial grid of 1059 points,  4 beta functions with: 
                l(1) =   0
                l(2) =   0
                l(3) =   1
                l(4) =   1
     Q(r) pseudized with 0 coefficients 


     PseudoPot. # 2 for N  read from file:
     /home/sf05/q-e-qe-6.7MaX-Release/pseudo/N.pbe-n-kjpaw_psl.1.0.0.UPF
     MD5 check sum: e0e4e94a9c4025c5b51bd7d8793849bd
     Pseudo is Projector augmented-wave + core cor, Zval =  5.0
     Generated using "atomic" code by A. Dal Corso  v.5.1.2
     Shape of augmentation charge: PSQ
     Using radial grid of 1085 points,  4 beta functions with: 
                l(1) =   0
                l(2) =   0
                l(3) =   1
                l(4) =   1
     Q(r) pseudized with 0 coefficients 


     PseudoPot. # 3 for Cr read from file:
     /home/sf05/q-e-qe-6.7MaX-Release/pseudo/Cr.pbe-spn-kjpaw_psl.1.0.0.UPF
     MD5 check sum: 198f1a2427a48552563eee314eba32ba
     Pseudo is Projector augmented-wave + core cor, Zval = 14.0
     Generated using &quot;atomic&quot; code by A. Dal Corso  v.6.3
     Shape of augmentation charge: PSQ
     Using radial grid of 1183 points,  6 beta functions with: 
                l(1) =   0
                l(2) =   0
                l(3) =   1
                l(4) =   1
                l(5) =   2
                l(6) =   2
     Q(r) pseudized with 0 coefficients 


     PseudoPot. # 4 for Cr read from file:
     /home/sf05/q-e-qe-6.7MaX-Release/pseudo/Cr.pbe-spn-kjpaw_psl.1.0.0.UPF
     MD5 check sum: 198f1a2427a48552563eee314eba32ba
     Pseudo is Projector augmented-wave + core cor, Zval = 14.0
     Generated using &quot;atomic&quot; code by A. Dal Corso  v.6.3
     Shape of augmentation charge: PSQ
     Using radial grid of 1183 points,  6 beta functions with: 
                l(1) =   0
                l(2) =   0
                l(3) =   1
                l(4) =   1
                l(5) =   2
                l(6) =   2
     Q(r) pseudized with 0 coefficients 


     atomic species   valence    mass     pseudopotential
        B              3.00    10.81100     B ( 1.00)
        N              5.00    14.00674     N ( 1.00)
        Cr1           14.00    51.99610     Cr( 1.00)
        Cr2           14.00    51.99610     Cr( 1.00)

     Starting magnetic structure 
     atomic species   magnetization
        B            0.000
        N            0.000
        Cr1          1.000
        Cr2          1.000

     No symmetry found



   Cartesian axes

     site n.     atom                  positions (alat units)
         1           B   tau(   1) = (  -0.1250000   0.2165064   0.8985623  )
         2           B   tau(   2) = (   0.3750000   0.6495191   0.8985623  )
         3           B   tau(   3) = (   0.2500000   0.0000000   0.8985623  )
         4           B   tau(   4) = (   0.7500000   0.0000000   0.8985623  )
         5           B   tau(   5) = (   0.1250000   0.2165064   0.8985623  )
         6           B   tau(   6) = (  -0.3750000   0.6495191   0.8985623  )
         7           N   tau(   7) = (   0.7500005   0.2886748   0.8985623  )
         8           N   tau(   8) = (   0.3750005   0.5051812   0.8985623  )
         9           N   tau(   9) = (   0.3750005   0.0721685   0.8985623  )
        10           N   tau(  10) = (   0.6250005   0.0721685   0.8985623  )
        11           N   tau(  11) = (   0.2500005   0.2886748   0.8985623  )
        12           N   tau(  12) = (   0.6250005   0.5051812   0.8985623  )
        13           N   tau(  13) = (   0.0000005   0.2886748   0.8985623  )
        14           N   tau(  14) = (   0.2500005   0.7216875   0.8985623  )
        15           N   tau(  15) = (  -0.2499995   0.7216875   0.8985623  )
        16           B   tau(  16) = (   0.0000000   0.4330127   0.8985623  )
        17           B   tau(  17) = (   0.1250000   0.6495191   0.8985623  )
        18           B   tau(  18) = (  -0.1250000   0.6495191   0.8985623  )
        19           B   tau(  19) = (   0.3750000   0.2165064   0.8985623  )
        20           B   tau(  20) = (   0.6250000   0.2165064   0.8985623  )
        21           B   tau(  21) = (   0.5000000   0.4330127   0.8985623  )
        22           N   tau(  22) = (   0.5000005   0.2886748   0.8985623  )
        23           B   tau(  23) = (  -0.2500000   0.4330127   0.8985623  )
        24           B   tau(  24) = (   0.2500000   0.4330127   0.8985623  )
        25           B   tau(  25) = (   0.5000000   0.0000000   0.8985623  )
        26           N   tau(  26) = (  -0.1249995   0.5051812   0.8985623  )
        27           N   tau(  27) = (   0.1250005   0.5051812   0.8985623  )
        28           N   tau(  28) = (   0.0000005   0.7216875   0.8985623  )
        29           N   tau(  29) = (   0.5000005   0.7216875   0.8985623  )
        30           N   tau(  30) = (   0.1250005   0.0721685   0.8985623  )
        31           N   tau(  31) = (   0.8750005   0.0721685   0.8985623  )
        32           B   tau(  32) = (   0.0000000   0.0000000   0.8985623  )
        33           Cr1 tau(  33) = (   0.4900000   0.2598076   1.2040735  )
        34           Cr2 tau(  34) = (   0.0100000   0.2598076   1.2040735  )

     number of k points=    15  Gaussian smearing, width (Ry)=  0.0000
                       cart. coord. in units 2pi/alat
        k(    1) = (   0.1666667   0.2886751   0.0000000), wk =   0.0740741
        k(    2) = (   0.1666667  -0.4811252   0.0000000), wk =   0.0740741
        k(    3) = (   0.1666667  -0.0962250   0.0000000), wk =   0.0740741
        k(    4) = (  -0.5000000  -0.8660254   0.0000000), wk =   0.0370370
        k(    5) = (  -0.1666667   0.2886751   0.0000000), wk =   0.0740741
        k(    6) = (   0.3333333   0.0000000   0.0000000), wk =   0.0740741
        k(    7) = (  -0.1666667  -0.4811252   0.0000000), wk =   0.0740741
        k(    8) = (   0.5000000  -0.0962250   0.0000000), wk =   0.0740741
        k(    9) = (  -0.3333333  -0.3849002   0.0000000), wk =   0.0740741
        k(   10) = (   0.5000000   0.0962250   0.0000000), wk =   0.0740741
        k(   11) = (  -0.3333333   0.3849002   0.0000000), wk =   0.0740741
        k(   12) = (  -0.1666667  -0.0962250   0.0000000), wk =   0.0740741
        k(   13) = (  -0.0000000  -0.1924501   0.0000000), wk =   0.0740741
        k(   14) = (   0.5000000  -0.8660254   0.0000000), wk =   0.0370370
        k(   15) = (  -1.0000000   0.0000000   0.0000000), wk =   0.0370370

     Dense  grid:  1741401 G-vectors     FFT dimensions: ( 135, 135, 240)

     Smooth grid:   474235 G-vectors     FFT dimensions: (  90,  90, 160)

     Estimated max dynamical RAM per process >     218.62 MB

     Estimated total dynamical RAM >      10.25 GB
     Generating pointlists ...
     new r_m :   0.0595 (alat units)  1.1269 (a.u.) for type    1
     new r_m :   0.0595 (alat units)  1.1269 (a.u.) for type    2
     new r_m :   0.1267 (alat units)  2.3972 (a.u.) for type    3
     new r_m :   0.1267 (alat units)  2.3972 (a.u.) for type    4

     Initial potential from superposition of free atoms

     starting charge  155.99382, renormalised to  156.00000

     negative rho (up, down):  6.502E-03 4.655E-04
     Starting wfcs are  148 randomized atomic wfcs
     Checking if some PAW data can be deallocated... 

     total cpu time spent up to now is       20.0 secs

     Self-consistent Calculation

     iteration #  1     ecut=    48.00 Ry     beta= 0.50
     Davidson diagonalization with overlap
     ethr =  1.00E-02,  avg # of iterations =  3.0

     negative rho (up, down):  4.690E-03 2.946E-03

     total cpu time spent up to now is       60.1 secs

     total energy              =   -1130.76899989 Ry
     estimated scf accuracy    <      11.36618850 Ry

     total magnetization       =    12.00 Bohr mag/cell
     absolute magnetization    =    12.17 Bohr mag/cell

     iteration #  2     ecut=    48.00 Ry     beta= 0.50
     Davidson diagonalization with overlap
     ethr =  7.29E-03,  avg # of iterations =  2.6

     negative rho (up, down):  7.268E-03 1.124E-02

     total cpu time spent up to now is       97.2 secs

     total energy              =   -1133.05238759 Ry
     estimated scf accuracy    <       3.27476236 Ry

     total magnetization       =    12.00 Bohr mag/cell
     absolute magnetization    =    12.00 Bohr mag/cell

     iteration #  3     ecut=    48.00 Ry     beta= 0.50
     Davidson diagonalization with overlap
     ethr =  2.10E-03,  avg # of iterations =  6.4

     negative rho (up, down):  3.333E-03 5.786E-03

     total cpu time spent up to now is      133.9 secs

     total energy              =   -1133.62063020 Ry
     estimated scf accuracy    <       0.67112569 Ry

     total magnetization       =    12.00 Bohr mag/cell
     absolute magnetization    =    12.05 Bohr mag/cell

     iteration #  4     ecut=    48.00 Ry     beta= 0.50
     Davidson diagonalization with overlap
     ethr =  4.30E-04,  avg # of iterations =  7.4

     negative rho (up, down):  6.745E-03 1.374E-02

     total cpu time spent up to now is      170.8 secs

     total energy              =   -1133.79716002 Ry
     estimated scf accuracy    <       0.25184739 Ry

     total magnetization       =    12.00 Bohr mag/cell
     absolute magnetization    =    12.01 Bohr mag/cell

     iteration #  5     ecut=    48.00 Ry     beta= 0.50
     Davidson diagonalization with overlap
     ethr =  1.61E-04,  avg # of iterations =  9.4

     negative rho (up, down):  4.514E-03 9.974E-03

     total cpu time spent up to now is      209.5 secs

     total energy              =   -1133.80808608 Ry
     estimated scf accuracy    <       0.01874559 Ry

     total magnetization       =    12.00 Bohr mag/cell
     absolute magnetization    =    12.00 Bohr mag/cell

     iteration #  6     ecut=    48.00 Ry     beta= 0.50
     Davidson diagonalization with overlap
     c_bands:  1 eigenvalues not converged
     c_bands:  4 eigenvalues not converged
     c_bands:  3 eigenvalues not converged
     c_bands:  2 eigenvalues not converged
     c_bands:  1 eigenvalues not converged
     c_bands:  1 eigenvalues not converged
     c_bands:  2 eigenvalues not converged
     c_bands:  4 eigenvalues not converged
     c_bands:  2 eigenvalues not converged
     c_bands:  1 eigenvalues not converged
     c_bands:  1 eigenvalues not converged
     ethr =  1.20E-05,  avg # of iterations = 14.5

     negative rho (up, down):  3.332E-03 7.849E-03

     total cpu time spent up to now is      265.4 secs

     total energy              =   -1133.81077862 Ry
     estimated scf accuracy    <       0.00253390 Ry

     total magnetization       =    12.00 Bohr mag/cell
     absolute magnetization    =    12.00 Bohr mag/cell

     iteration #  7     ecut=    48.00 Ry     beta= 0.50
     Davidson diagonalization with overlap
     c_bands:  1 eigenvalues not converged
     c_bands:  2 eigenvalues not converged
     c_bands:  1 eigenvalues not converged
     c_bands:  3 eigenvalues not converged
     c_bands:  1 eigenvalues not converged
     c_bands:  1 eigenvalues not converged
     c_bands:  4 eigenvalues not converged
     c_bands:  2 eigenvalues not converged
     c_bands:  1 eigenvalues not converged
     c_bands:  2 eigenvalues not converged
     ethr =  1.62E-06,  avg # of iterations = 11.5

     negative rho (up, down):  2.992E-03 7.533E-03

     total cpu time spent up to now is      314.9 secs

     total energy              =   -1133.81145929 Ry
     estimated scf accuracy    <       0.00047406 Ry

     total magnetization       =    12.00 Bohr mag/cell
     absolute magnetization    =    12.00 Bohr mag/cell

     iteration #  8     ecut=    48.00 Ry     beta= 0.50
     Davidson diagonalization with overlap
     ethr =  3.04E-07,  avg # of iterations =  5.9

     negative rho (up, down):  2.865E-03 7.339E-03

     total cpu time spent up to now is      352.5 secs

     total energy              =   -1133.81157790 Ry
     estimated scf accuracy    <       0.00007309 Ry

     total magnetization       =    12.00 Bohr mag/cell
     absolute magnetization    =    12.00 Bohr mag/cell

     iteration #  9     ecut=    48.00 Ry     beta= 0.50
     Davidson diagonalization with overlap
     ethr =  4.69E-08,  avg # of iterations =  2.0

     negative rho (up, down):  2.826E-03 7.307E-03

     total cpu time spent up to now is      386.2 secs

     total energy              =   -1133.81163815 Ry
     estimated scf accuracy    <       0.00000553 Ry

     total magnetization       =    12.00 Bohr mag/cell
     absolute magnetization    =    12.00 Bohr mag/cell

     iteration # 10     ecut=    48.00 Ry     beta= 0.50
     Davidson diagonalization with overlap
     ethr =  3.54E-09,  avg # of iterations =  5.3

     negative rho (up, down):  2.814E-03 7.304E-03

     total cpu time spent up to now is      429.2 secs

     total energy              =   -1133.81166480 Ry
     estimated scf accuracy    <       0.00000415 Ry

     total magnetization       =    12.00 Bohr mag/cell
     absolute magnetization    =    12.00 Bohr mag/cell

     iteration # 11     ecut=    48.00 Ry     beta= 0.50
     Davidson diagonalization with overlap
     ethr =  2.66E-09,  avg # of iterations =  2.3

     negative rho (up, down):  2.810E-03 7.307E-03

     total cpu time spent up to now is      465.8 secs

     total energy              =   -1133.81167338 Ry
     estimated scf accuracy    <       0.00000025 Ry

     total magnetization       =    12.00 Bohr mag/cell
     absolute magnetization    =    12.00 Bohr mag/cell

     iteration # 12     ecut=    48.00 Ry     beta= 0.50
     Davidson diagonalization with overlap
     ethr =  1.63E-10,  avg # of iterations =  3.8

     negative rho (up, down):  2.808E-03 7.311E-03
 
     Magnetic moment per site:
     atom:    1    charge:    0.8805    magn:    0.0007    constr:    0.0000
     atom:    2    charge:    0.8803    magn:    0.0002    constr:    0.0000
     atom:    3    charge:    0.8803    magn:    0.0005    constr:    0.0000
     atom:    4    charge:    0.8803    magn:    0.0004    constr:    0.0000
     atom:    5    charge:    0.8806    magn:    0.0007    constr:    0.0000
     atom:    6    charge:    0.8803    magn:    0.0001    constr:    0.0000
     atom:    7    charge:    2.8607    magn:    0.0042    constr:    0.0000
     atom:    8    charge:    2.8608    magn:    0.0016    constr:    0.0000
     atom:    9    charge:    2.8607    magn:    0.0036    constr:    0.0000
     atom:   10    charge:    2.8607    magn:    0.0030    constr:    0.0000
     atom:   11    charge:    2.8607    magn:    0.0057    constr:    0.0000
     atom:   12    charge:    2.8609    magn:    0.0014    constr:    0.0000
     atom:   13    charge:    2.8598    magn:    0.0119    constr:    0.0000
     atom:   14    charge:    2.8599    magn:    0.0002    constr:    0.0000
     atom:   15    charge:    2.8599    magn:    0.0002    constr:    0.0000
     atom:   16    charge:    0.8802    magn:    0.0008    constr:    0.0000
     atom:   17    charge:    0.8800    magn:    0.0002    constr:    0.0000
     atom:   18    charge:    0.8800    magn:    0.0001    constr:    0.0000
     atom:   19    charge:    0.8800    magn:    0.0007    constr:    0.0000
     atom:   20    charge:    0.8799    magn:    0.0007    constr:    0.0000
     atom:   21    charge:    0.8799    magn:    0.0008    constr:    0.0000
     atom:   22    charge:    2.8611    magn:    0.0119    constr:    0.0000
     atom:   23    charge:    0.8799    magn:    0.0002    constr:    0.0000
     atom:   24    charge:    0.8799    magn:    0.0002    constr:    0.0000
     atom:   25    charge:    0.8799    magn:    0.0002    constr:    0.0000
     atom:   26    charge:    2.8597    magn:    0.0014    constr:    0.0000
     atom:   27    charge:    2.8597    magn:    0.0016    constr:    0.0000
     atom:   28    charge:    2.8598    magn:    0.0003    constr:    0.0000
     atom:   29    charge:    2.8596    magn:    0.0003    constr:    0.0000
     atom:   30    charge:    2.8594    magn:    0.0036    constr:    0.0000
     atom:   31    charge:    2.8594    magn:    0.0030    constr:    0.0000
     atom:   32    charge:    0.8802    magn:    0.0002    constr:    0.0000
     atom:   33    charge:   12.7673    magn:    4.7605    constr:    0.0000
     atom:   34    charge:   12.7673    magn:    4.7605    constr:    0.0000

     total cpu time spent up to now is      499.6 secs

     End of self-consistent calculation

 ------ SPIN UP ------------


          k = 0.1667 0.2887 0.0000 ( 59267 PWs)   bands (ev):

   -72.4677 -72.4677 -43.9330 -43.9328 -43.9295 -43.9295 -43.9202 -43.9202
   -21.2814 -20.6950 -20.6903 -20.1496 -20.1197 -19.6208 -19.6176 -19.1334
   -18.7329 -18.7257 -18.5013 -18.4744 -18.2283 -18.1192 -18.1106 -17.8828
   -12.5177 -12.2460 -12.2283 -11.8545 -11.8507 -11.6912 -11.2249 -11.2223
   -10.4261 -10.4005 -10.1505 -10.1486  -9.6222  -9.6213  -8.8713  -8.8661
    -8.8504  -8.7990  -8.7954  -8.6289  -8.2303  -8.0797  -8.0615  -7.8661
    -7.8573  -7.4715  -7.4702  -7.3433  -7.2672  -7.2414  -7.2399  -7.0018
    -6.9800  -6.5923  -6.5819  -6.1871  -6.1861  -5.9060  -5.4518  -5.3302
    -5.3113  -5.2335  -4.9720  -4.9105  -4.5391  -4.3918  -4.3728  -4.0118
    -2.2651  -1.6322  -1.4185  -1.4177  -1.4052  -1.3909  -1.3736  -1.3704
    -1.3438  -1.2922  -1.2907  -1.2723   0.6103   0.7458   1.0916   1.1453
     1.2104   1.3913   1.4270   1.5529   1.5696   1.6447

          k = 0.1667-0.4811 0.0000 ( 59291 PWs)   bands (ev):

   -72.4677 -72.4677 -43.9330 -43.9329 -43.9295 -43.9294 -43.9202 -43.9202
   -21.1517 -20.9451 -20.7578 -20.1956 -19.8384 -19.5011 -19.3497 -19.2101
   -19.0474 -18.8150 -18.6760 -18.5758 -18.1841 -18.1204 -17.9567 -17.7570
   -12.3819 -12.1468 -12.0780 -11.9392 -11.7130 -11.6920 -11.5854 -10.9749
   -10.9241 -10.6575 -10.5557  -9.8938  -9.7263  -9.3691  -9.1443  -8.7039
    -8.6565  -8.5868  -8.4219  -8.3990  -8.1950  -8.1632  -8.0961  -8.0834
    -7.7225  -7.6566  -7.5277  -7.5068  -7.3930  -7.2038  -7.1006  -6.8953
    -6.6554  -6.4250  -6.2068  -6.1909  -6.0134  -5.9626  -5.8171  -5.7759
    -5.4845  -5.4412  -5.2402  -5.0718  -4.4801  -4.3775  -4.1272  -3.7994
    -2.2560  -1.6391  -1.4185  -1.4161  -1.4052  -1.3869  -1.3767  -1.3708
    -1.3440  -1.2923  -1.2910  -1.2716   0.5907   0.6248   1.0400   1.1432
     1.1566   1.2230   1.3277   1.7307   1.7902   1.9000

          k = 0.1667-0.0962 0.0000 ( 59226 PWs)   bands (ev):

   -72.4677 -72.4677 -43.9330 -43.9329 -43.9295 -43.9294 -43.9202 -43.9202
   -21.3477 -20.5717 -20.3781 -20.3743 -20.0213 -20.0161 -19.8385 -18.7624
   -18.7595 -18.4171 -18.3950 -18.3911 -18.3099 -18.2853 -18.1087 -18.1051
   -12.5463 -12.5309 -12.4401 -11.6135 -11.6108 -11.4684 -11.4447 -10.9582
   -10.9577  -9.9615  -9.9610  -9.7096  -9.4146  -9.3992  -9.2637  -9.2615
    -9.0747  -9.0729  -8.9587  -8.3559  -8.3556  -7.9378  -7.9290  -7.9215
    -7.8793  -7.8033  -7.6391  -7.6243  -7.1556  -7.1386  -6.9932  -6.9209
    -6.9191  -6.8832  -6.5630  -6.5625  -6.2905  -5.3746  -5.3669  -5.1766
    -5.0987  -4.8597  -4.8090  -4.8011  -4.6666  -4.6155  -4.3774  -4.3698
    -2.2742  -1.6251  -1.4207  -1.4173  -1.4052  -1.3959  -1.3730  -1.3681
    -1.3436  -1.2920  -1.2904  -1.2731   0.6300   0.8517   1.0705   1.1219
     1.2471   1.3305   1.3723   1.5584   1.6047   1.6180

          k =-0.5000-0.8660 0.0000 ( 59292 PWs)   bands (ev):

   -72.4677 -72.4677 -43.9330 -43.9329 -43.9295 -43.9295 -43.9202 -43.9202
   -21.0843 -21.0813 -20.5009 -20.5006 -19.4677 -19.4671 -19.4369 -19.4360
   -19.0252 -19.0230 -18.3665 -18.3659 -18.3418 -18.3370 -17.8246 -17.8242
   -12.1078 -12.1065 -12.0918 -12.0882 -11.9088 -11.9081 -11.3623 -11.3604
   -10.2678 -10.2673 -10.1676 -10.1671 -10.1600 -10.1597  -8.6084  -8.5990
    -8.5834  -8.5821  -8.5751  -8.5720  -7.8978  -7.8975  -7.8930  -7.8927
    -7.8530  -7.8528  -7.8047  -7.8023  -7.5221  -7.5199  -6.6433  -6.6427
    -6.3996  -6.3940  -6.3210  -6.3177  -6.2227  -6.2211  -5.7394  -5.7367
    -5.5780  -5.5759  -4.7716  -4.7701  -4.7201  -4.7110  -3.9120  -3.9106
    -2.0573  -1.9114  -1.4067  -1.3938  -1.3908  -1.3891  -1.3826  -1.3780
    -1.3715  -1.3703  -1.2861  -1.2786   0.9646   1.0003   1.0682   1.1110
     1.3869   1.4058   1.4411   1.4775   1.6085   1.6152

          k =-0.1667 0.2887 0.0000 ( 59267 PWs)   bands (ev):

   -72.4677 -72.4677 -43.9330 -43.9328 -43.9295 -43.9295 -43.9202 -43.9202
   -21.2814 -20.6950 -20.6903 -20.1496 -20.1197 -19.6208 -19.6176 -19.1334
   -18.7328 -18.7257 -18.5013 -18.4744 -18.2283 -18.1192 -18.1106 -17.8828
   -12.5177 -12.2460 -12.2283 -11.8545 -11.8508 -11.6912 -11.2249 -11.2223
   -10.4261 -10.4005 -10.1505 -10.1486  -9.6222  -9.6213  -8.8713  -8.8660
    -8.8503  -8.7991  -8.7954  -8.6289  -8.2303  -8.0797  -8.0615  -7.8661
    -7.8572  -7.4715  -7.4702  -7.3433  -7.2673  -7.2414  -7.2400  -7.0019
    -6.9801  -6.5923  -6.5819  -6.1871  -6.1860  -5.9060  -5.4519  -5.3302
    -5.3113  -5.2334  -4.9720  -4.9105  -4.5391  -4.3918  -4.3728  -4.0118
    -2.2651  -1.6322  -1.4185  -1.4177  -1.4052  -1.3909  -1.3736  -1.3704
    -1.3438  -1.2922  -1.2907  -1.2723   0.6103   0.7458   1.0917   1.1453
     1.2104   1.3913   1.4269   1.5529   1.5695   1.6447

          k = 0.3333 0.0000 0.0000 ( 59267 PWs)   bands (ev):

   -72.4677 -72.4677 -43.9330 -43.9329 -43.9295 -43.9294 -43.9202 -43.9202
   -21.2808 -20.7239 -20.6611 -20.1466 -20.1212 -19.6509 -19.5896 -19.1359
   -18.7514 -18.7005 -18.5025 -18.4762 -18.2232 -18.1444 -18.0926 -17.8820
   -12.5171 -12.2460 -12.2283 -11.8641 -11.8437 -11.6893 -11.2443 -11.2031
   -10.4248 -10.4002 -10.1662 -10.1338  -9.6291  -9.6130  -8.8750  -8.8622
    -8.8477  -8.8240  -8.7721  -8.6296  -8.2324  -8.1443  -7.9954  -7.8629
    -7.8573  -7.4788  -7.4634  -7.3393  -7.2674  -7.2521  -7.2283  -7.0023
    -6.9817  -6.6577  -6.5234  -6.1903  -6.1818  -5.9123  -5.4517  -5.3548
    -5.2740  -5.2339  -4.9725  -4.9157  -4.5294  -4.4254  -4.3507  -4.0115
    -2.1735  -1.7691  -1.4135  -1.4050  -1.3996  -1.3916  -1.3784  -1.3713
    -1.3582  -1.3499  -1.2884  -1.2768   0.9346   0.9862   1.1201   1.1856
     1.1931   1.3273   1.4440   1.5200   1.5409   1.6125

          k =-0.1667-0.4811 0.0000 ( 59291 PWs)   bands (ev):

   -72.4677 -72.4677 -43.9330 -43.9329 -43.9295 -43.9294 -43.9202 -43.9202
   -21.1517 -20.9451 -20.7578 -20.1956 -19.8384 -19.5011 -19.3497 -19.2101
   -19.0474 -18.8150 -18.6760 -18.5758 -18.1841 -18.1204 -17.9567 -17.7570
   -12.3819 -12.1468 -12.0780 -11.9392 -11.7130 -11.6920 -11.5854 -10.9749
   -10.9241 -10.6575 -10.5557  -9.8938  -9.7263  -9.3692  -9.1443  -8.7039
    -8.6564  -8.5868  -8.4219  -8.3990  -8.1950  -8.1632  -8.0961  -8.0834
    -7.7225  -7.6566  -7.5276  -7.5068  -7.3930  -7.2038  -7.1005  -6.8953
    -6.6555  -6.4250  -6.2068  -6.1909  -6.0134  -5.9625  -5.8171  -5.7759
    -5.4845  -5.4412  -5.2402  -5.0719  -4.4801  -4.3775  -4.1272  -3.7994
    -2.2560  -1.6391  -1.4185  -1.4161  -1.4052  -1.3869  -1.3767  -1.3708
    -1.3440  -1.2923  -1.2910  -1.2716   0.5907   0.6248   1.0400   1.1432
     1.1566   1.2230   1.3277   1.7307   1.7902   1.9009

          k = 0.5000-0.0962 0.0000 ( 59291 PWs)   bands (ev):

   -72.4677 -72.4677 -43.9330 -43.9329 -43.9295 -43.9294 -43.9202 -43.9202
   -21.1482 -20.9550 -20.7512 -20.1936 -19.8388 -19.5019 -19.3594 -19.2032
   -19.0485 -18.8140 -18.6646 -18.5841 -18.1703 -18.1402 -17.9519 -17.7570
   -12.3803 -12.1477 -12.0753 -11.9441 -11.7272 -11.6753 -11.5881 -10.9762
   -10.9206 -10.6551 -10.5587  -9.8914  -9.7270  -9.3704  -9.1436  -8.6907
    -8.6571  -8.5847  -8.4391  -8.4262  -8.1922  -8.1363  -8.1113  -8.0693
    -7.7178  -7.6575  -7.5263  -7.5087  -7.3876  -7.2053  -7.1016  -6.8960
    -6.6560  -6.4275  -6.2374  -6.1902  -5.9912  -5.9619  -5.8161  -5.7792
    -5.4859  -5.4337  -5.2187  -5.0910  -4.4541  -4.4135  -4.1176  -3.8008
    -2.0577  -1.9108  -1.4068  -1.3942  -1.3912  -1.3888  -1.3842  -1.3767
    -1.3714  -1.3703  -1.2861  -1.2786   0.9030   0.9908   1.0697   1.1012
     1.3069   1.3728   1.4458   1.4728   1.5415   1.7538

          k =-0.3333-0.3849 0.0000 ( 59291 PWs)   bands (ev):

   -72.4677 -72.4677 -43.9330 -43.9329 -43.9295 -43.9294 -43.9202 -43.9202
   -21.1494 -20.9516 -20.7536 -20.1935 -19.8406 -19.5004 -19.3531 -19.2065
   -19.0531 -18.8115 -18.6664 -18.5830 -18.1731 -18.1368 -17.9521 -17.7572
   -12.3812 -12.1451 -12.0785 -11.9422 -11.7147 -11.6895 -11.5870 -10.9755
   -10.9209 -10.6543 -10.5595  -9.8919  -9.7271  -9.3704  -9.1443  -8.6951
    -8.6555  -8.5865  -8.4267  -8.4218  -8.1943  -8.1454  -8.0959  -8.0863
    -7.7187  -7.6549  -7.5346  -7.5010  -7.3870  -7.2054  -7.1023  -6.9017
    -6.6535  -6.4229  -6.2185  -6.1933  -6.0018  -5.9604  -5.8163  -5.7924
    -5.4857  -5.4269  -5.2197  -5.0906  -4.4569  -4.4107  -4.1173  -3.8008
    -2.1590  -1.7822  -1.4110  -1.4058  -1.3988  -1.3850  -1.3806  -1.3755
    -1.3586  -1.3504  -1.2886  -1.2759   0.7834   0.9068   1.0912   1.1351
     1.2179   1.2338   1.3141   1.5264   1.6875   1.8419

          k = 0.5000 0.0962 0.0000 ( 59291 PWs)   bands (ev):

   -72.4677 -72.4677 -43.9330 -43.9329 -43.9295 -43.9294 -43.9202 -43.9202
   -21.1482 -20.9550 -20.7512 -20.1936 -19.8388 -19.5019 -19.3594 -19.2032
   -19.0485 -18.8140 -18.6646 -18.5841 -18.1703 -18.1402 -17.9519 -17.7570
   -12.3803 -12.1477 -12.0753 -11.9441 -11.7272 -11.6753 -11.5881 -10.9762
   -10.9206 -10.6551 -10.5587  -9.8914  -9.7271  -9.3704  -9.1436  -8.6907
    -8.6571  -8.5847  -8.4391  -8.4262  -8.1922  -8.1363  -8.1112  -8.0693
    -7.7178  -7.6575  -7.5263  -7.5088  -7.3876  -7.2053  -7.1016  -6.8960
    -6.6559  -6.4274  -6.2374  -6.1901  -5.9912  -5.9618  -5.8162  -5.7792
    -5.4859  -5.4337  -5.2187  -5.0909  -4.4541  -4.4135  -4.1176  -3.8008
    -2.0577  -1.9108  -1.4068  -1.3942  -1.3912  -1.3888  -1.3842  -1.3767
    -1.3714  -1.3703  -1.2861  -1.2786   0.9030   0.9908   1.0697   1.1012
     1.3069   1.3728   1.4458   1.4728   1.5415   1.7538

          k =-0.3333 0.3849 0.0000 ( 59291 PWs)   bands (ev):

   -72.4677 -72.4677 -43.9330 -43.9329 -43.9295 -43.9294 -43.9202 -43.9202
   -21.1494 -20.9516 -20.7536 -20.1935 -19.8406 -19.5004 -19.3531 -19.2065
   -19.0531 -18.8115 -18.6664 -18.5830 -18.1731 -18.1368 -17.9521 -17.7572
   -12.3812 -12.1451 -12.0785 -11.9422 -11.7147 -11.6896 -11.5869 -10.9755
   -10.9209 -10.6543 -10.5595  -9.8919  -9.7271  -9.3704  -9.1443  -8.6951
    -8.6556  -8.5864  -8.4267  -8.4218  -8.1944  -8.1454  -8.0958  -8.0863
    -7.7186  -7.6549  -7.5346  -7.5009  -7.3871  -7.2054  -7.1024  -6.9017
    -6.6535  -6.4229  -6.2185  -6.1933  -6.0017  -5.9605  -5.8162  -5.7924
    -5.4856  -5.4269  -5.2197  -5.0906  -4.4570  -4.4107  -4.1173  -3.8008
    -2.1590  -1.7822  -1.4110  -1.4058  -1.3988  -1.3850  -1.3806  -1.3755
    -1.3586  -1.3504  -1.2886  -1.2759   0.7834   0.9068   1.0912   1.1351
     1.2179   1.2339   1.3141   1.5265   1.6875   1.8419

          k =-0.1667-0.0962 0.0000 ( 59226 PWs)   bands (ev):

   -72.4677 -72.4677 -43.9330 -43.9329 -43.9295 -43.9294 -43.9202 -43.9202
   -21.3477 -20.5717 -20.3781 -20.3743 -20.0213 -20.0161 -19.8385 -18.7624
   -18.7595 -18.4171 -18.3950 -18.3911 -18.3099 -18.2853 -18.1087 -18.1051
   -12.5463 -12.5309 -12.4401 -11.6135 -11.6108 -11.4684 -11.4447 -10.9582
   -10.9577  -9.9615  -9.9611  -9.7096  -9.4146  -9.3991  -9.2637  -9.2616
    -9.0746  -9.0729  -8.9587  -8.3559  -8.3557  -7.9378  -7.9290  -7.9215
    -7.8793  -7.8033  -7.6391  -7.6243  -7.1556  -7.1386  -6.9932  -6.9210
    -6.9190  -6.8832  -6.5630  -6.5625  -6.2906  -5.3746  -5.3669  -5.1765
    -5.0988  -4.8597  -4.8090  -4.8011  -4.6666  -4.6155  -4.3774  -4.3698
    -2.2742  -1.6251  -1.4207  -1.4173  -1.4052  -1.3959  -1.3730  -1.3681
    -1.3436  -1.2920  -1.2904  -1.2731   0.6300   0.8517   1.0705   1.1218
     1.2471   1.3305   1.3723   1.5584   1.6046   1.6180

          k =-0.0000-0.1925 0.0000 ( 59226 PWs)   bands (ev):

   -72.4677 -72.4677 -43.9330 -43.9329 -43.9295 -43.9295 -43.9202 -43.9202
   -21.3478 -20.5646 -20.4003 -20.3634 -20.0274 -20.0005 -19.8437 -18.7735
   -18.7424 -18.4518 -18.3930 -18.3801 -18.2862 -18.2860 -18.1242 -18.0969
   -12.5466 -12.5312 -12.4395 -11.6238 -11.6017 -11.4642 -11.4460 -10.9629
   -10.9551  -9.9686  -9.9540  -9.7100  -9.4119  -9.3997  -9.2659  -9.2601
    -9.0748  -9.0737  -8.9594  -8.3599  -8.3502  -7.9393  -7.9296  -7.8937
    -7.8755  -7.8054  -7.7075  -7.5977  -7.1647  -7.0974  -6.9912  -6.9273
    -6.9148  -6.9013  -6.5690  -6.5555  -6.2915  -5.4017  -5.3239  -5.1769
    -5.0984  -4.9233  -4.8173  -4.7686  -4.6255  -4.6173  -4.4155  -4.3474
    -2.3062  -1.5790  -1.4226  -1.4218  -1.4072  -1.3955  -1.3711  -1.3679
    -1.3380  -1.2931  -1.2736  -1.2424   0.4639   0.7782   1.0524   1.0926
     1.2107   1.3749   1.3814   1.5900   1.6369   1.7108

          k = 0.5000-0.8660 0.0000 ( 59292 PWs)   bands (ev):

   -72.4677 -72.4677 -43.9330 -43.9329 -43.9295 -43.9295 -43.9202 -43.9202
   -21.0842 -21.0813 -20.5009 -20.5006 -19.4677 -19.4671 -19.4369 -19.4360
   -19.0252 -19.0231 -18.3665 -18.3659 -18.3418 -18.3370 -17.8246 -17.8242
   -12.1078 -12.1065 -12.0918 -12.0883 -11.9088 -11.9080 -11.3622 -11.3604
   -10.2679 -10.2674 -10.1676 -10.1671 -10.1600 -10.1597  -8.6084  -8.5990
    -8.5833  -8.5821  -8.5750  -8.5721  -7.8978  -7.8975  -7.8930  -7.8927
    -7.8530  -7.8528  -7.8047  -7.8023  -7.5222  -7.5199  -6.6432  -6.6426
    -6.3995  -6.3940  -6.3210  -6.3177  -6.2225  -6.2211  -5.7394  -5.7367
    -5.5781  -5.5760  -4.7716  -4.7700  -4.7201  -4.7110  -3.9120  -3.9106
    -2.0573  -1.9114  -1.4067  -1.3938  -1.3908  -1.3891  -1.3825  -1.3780
    -1.3715  -1.3703  -1.2861  -1.2786   0.9646   1.0003   1.0683   1.1109
     1.3869   1.4058   1.4411   1.4775   1.6084   1.6152

          k =-1.0000 0.0000 0.0000 ( 59292 PWs)   bands (ev):

   -72.4677 -72.4677 -43.9330 -43.9329 -43.9295 -43.9294 -43.9202 -43.9202
   -21.1122 -21.0497 -20.5208 -20.4866 -19.4892 -19.4399 -19.4352 -19.4343
   -19.0526 -19.0004 -18.4203 -18.3476 -18.3341 -18.3087 -17.8400 -17.8116
   -12.1477 -12.1026 -12.0765 -12.0626 -11.9225 -11.8955 -11.3847 -11.3398
   -10.2928 -10.2608 -10.1704 -10.1632 -10.1548 -10.1499  -8.6697  -8.6166
    -8.5834  -8.5634  -8.5459  -8.5212  -7.9217  -7.9106  -7.8906  -7.8800
    -7.8666  -7.8429  -7.8390  -7.7652  -7.5499  -7.4956  -6.6512  -6.6312
    -6.4452  -6.3336  -6.3219  -6.3027  -6.2445  -6.2029  -5.7914  -5.7026
    -5.6023  -5.5522  -4.8599  -4.7485  -4.6931  -4.6696  -3.9480  -3.8799
    -2.2901  -1.5899  -1.4233  -1.4178  -1.4075  -1.3874  -1.3760  -1.3676
    -1.3383  -1.2935  -1.2724  -1.2431   0.4327   0.5686   1.0317   1.1167
     1.1982   1.3629   1.5423   1.5883   1.6067   1.8229

 ------ SPIN DOWN ----------


          k = 0.1667 0.2887 0.0000 ( 59267 PWs)   bands (ev):

   -68.0968 -68.0968 -39.5977 -39.5976 -39.5910 -39.5909 -39.5874 -39.5874
   -21.2740 -20.6874 -20.6837 -20.1407 -20.1145 -19.6136 -19.6111 -19.1263
   -18.7239 -18.7186 -18.4929 -18.4690 -18.2201 -18.1119 -18.1055 -17.8758
   -12.5128 -12.2400 -12.2245 -11.8498 -11.8467 -11.6872 -11.2199 -11.2177
   -10.4207 -10.3956 -10.1452 -10.1437  -9.6173  -9.6166  -8.8604  -8.8455
    -8.8435  -8.7942  -8.7912  -8.6246  -8.2260  -8.0506  -8.0401  -7.8610
    -7.8532  -7.4658  -7.4649  -7.3085  -7.2551  -7.2368  -7.2356  -6.9964
    -6.9768  -6.5687  -6.5623  -6.1823  -6.1815  -5.8835  -5.4466  -5.3007
    -5.2906  -5.2287  -4.9443  -4.8982  -4.5160  -4.3703  -4.3593  -3.9931
    -0.2261   0.6546   1.0329   1.1802   1.3055   1.3978   1.4374   1.5180
     1.5527   1.8202   1.8603   2.1222   2.2181   2.2564   2.2772   2.3887
     2.4105   2.5233   2.5476   2.5661   2.5788   2.6440

          k = 0.1667-0.4811 0.0000 ( 59291 PWs)   bands (ev):

   -68.0968 -68.0968 -39.5977 -39.5976 -39.5910 -39.5909 -39.5874 -39.5874
   -21.1436 -20.9394 -20.7504 -20.1881 -19.8315 -19.4940 -19.3431 -19.2024
   -19.0406 -18.8076 -18.6664 -18.5707 -18.1740 -18.1168 -17.9493 -17.7499
   -12.3769 -12.1419 -12.0735 -11.9349 -11.7092 -11.6870 -11.5809 -10.9700
   -10.9186 -10.6518 -10.5514  -9.8882  -9.7217  -9.3641  -9.1396  -8.6715
    -8.6516  -8.5813  -8.4177  -8.3830  -8.1903  -8.1354  -8.0915  -8.0791
    -7.7173  -7.6521  -7.5229  -7.5029  -7.3667  -7.1987  -7.0962  -6.8728
    -6.6499  -6.4026  -6.1878  -6.1853  -5.9879  -5.9570  -5.8123  -5.7563
    -5.4800  -5.4157  -5.2114  -5.0594  -4.4510  -4.3690  -4.1057  -3.7812
    -0.1846   0.6243   0.9990   1.0861   1.1216   1.2511   1.3587   1.7550
     1.8284   1.8636   2.0158   2.1259   2.2511   2.2902   2.3081   2.3492
     2.4376   2.4402   2.5012   2.5256   2.5646   2.6508

          k = 0.1667-0.0962 0.0000 ( 59226 PWs)   bands (ev):

   -68.0968 -68.0968 -39.5977 -39.5976 -39.5910 -39.5909 -39.5874 -39.5874
   -21.3405 -20.5632 -20.3712 -20.3684 -20.0132 -20.0093 -19.8328 -18.7538
   -18.7518 -18.4084 -18.3864 -18.3855 -18.3018 -18.2796 -18.1023 -18.0996
   -12.5406 -12.5267 -12.4356 -11.6089 -11.6066 -11.4624 -11.4412 -10.9534
   -10.9530  -9.9565  -9.9562  -9.7043  -9.4091  -9.3950  -9.2582  -9.2565
    -9.0701  -9.0686  -8.9324  -8.3505  -8.3502  -7.9328  -7.9250  -7.8881
    -7.8724  -7.7991  -7.6155  -7.6073  -7.1273  -7.1170  -6.9883  -6.9163
    -6.9149  -6.8682  -6.5584  -6.5581  -6.2861  -5.3468  -5.3427  -5.1716
    -5.0938  -4.8330  -4.7933  -4.7744  -4.6434  -4.6026  -4.3590  -4.3545
    -0.2638   0.6880   1.0366   1.0841   1.2562   1.4614   1.4714   1.5474
     1.7530   1.8929   1.9965   2.0266   2.0759   2.1590   2.2901   2.3840
     2.4501   2.5111   2.5222   2.5414   2.5812   2.6247

          k =-0.5000-0.8660 0.0000 ( 59292 PWs)   bands (ev):

   -68.0968 -68.0968 -39.5977 -39.5976 -39.5910 -39.5909 -39.5874 -39.5874
   -21.0766 -21.0742 -20.4943 -20.4940 -19.4582 -19.4577 -19.4312 -19.4308
   -19.0183 -19.0166 -18.3576 -18.3572 -18.3356 -18.3319 -17.8176 -17.8173
   -12.1019 -12.1008 -12.0876 -12.0844 -11.9046 -11.9040 -11.3574 -11.3557
   -10.2626 -10.2622 -10.1621 -10.1617 -10.1555 -10.1553  -8.5813  -8.5790
    -8.5752  -8.5718  -8.5706  -8.5679  -7.8926  -7.8923  -7.8885  -7.8883
    -7.8480  -7.8479  -7.7828  -7.7812  -7.5178  -7.5159  -6.6383  -6.6379
    -6.3621  -6.3589  -6.3074  -6.3055  -6.2175  -6.2162  -5.7192  -5.7173
    -5.5731  -5.5714  -4.7441  -4.7430  -4.7043  -4.6982  -3.8929  -3.8922
     0.0387   0.1628   1.0208   1.0348   1.4036   1.4177   1.5043   1.5234
     1.7823   1.7825   2.0622   2.0734   2.2025   2.2199   2.4106   2.4203
     2.4457   2.4623   2.5357   2.5455   2.5636   2.5830

          k =-0.1667 0.2887 0.0000 ( 59267 PWs)   bands (ev):

   -68.0968 -68.0968 -39.5977 -39.5976 -39.5910 -39.5909 -39.5874 -39.5874
   -21.2740 -20.6874 -20.6838 -20.1407 -20.1145 -19.6136 -19.6111 -19.1263
   -18.7238 -18.7186 -18.4929 -18.4690 -18.2201 -18.1119 -18.1055 -17.8758
   -12.5128 -12.2400 -12.2245 -11.8498 -11.8467 -11.6872 -11.2198 -11.2177
   -10.4207 -10.3956 -10.1452 -10.1437  -9.6173  -9.6166  -8.8604  -8.8455
    -8.8435  -8.7943  -8.7912  -8.6245  -8.2260  -8.0506  -8.0401  -7.8610
    -7.8532  -7.4659  -7.4649  -7.3085  -7.2551  -7.2367  -7.2356  -6.9965
    -6.9768  -6.5687  -6.5623  -6.1823  -6.1815  -5.8835  -5.4467  -5.3007
    -5.2906  -5.2286  -4.9443  -4.8982  -4.5160  -4.3703  -4.3593  -3.9931
    -0.2261   0.6546   1.0329   1.1802   1.3055   1.3978   1.4374   1.5180
     1.5526   1.8202   1.8604   2.1222   2.2181   2.2566   2.2772   2.3886
     2.4101   2.5230   2.5477   2.5662   2.5790   2.6462

          k = 0.3333 0.0000 0.0000 ( 59267 PWs)   bands (ev):

   -68.0968 -68.0968 -39.5977 -39.5976 -39.5910 -39.5909 -39.5874 -39.5874
   -21.2736 -20.7127 -20.6582 -20.1379 -20.1161 -19.6396 -19.5867 -19.1281
   -18.7403 -18.6974 -18.4932 -18.4708 -18.2162 -18.1332 -18.0895 -17.8752
   -12.5123 -12.2399 -12.2246 -11.8587 -11.8399 -11.6856 -11.2377 -11.2000
   -10.4196 -10.3954 -10.1590 -10.1307  -9.6234  -9.6094  -8.8605  -8.8494
    -8.8376  -8.8166  -8.7701  -8.6252  -8.2277  -8.1002  -7.9898  -7.8583
    -7.8534  -7.4721  -7.4592  -7.3053  -7.2556  -7.2465  -7.2253  -6.9965
    -6.9783  -6.6176  -6.5174  -6.1852  -6.1778  -5.8870  -5.4465  -5.3216
    -5.2630  -5.2290  -4.9432  -4.9023  -4.5103  -4.3960  -4.3404  -3.9929
    -0.1481   0.4143   1.0412   1.1546   1.3327   1.4548   1.4654   1.5213
     1.5822   1.8048   2.0879   2.1172   2.2487   2.2710   2.2793   2.4169
     2.4550   2.4694   2.5282   2.5626   2.5743   2.6493

          k =-0.1667-0.4811 0.0000 ( 59291 PWs)   bands (ev):

   -68.0968 -68.0968 -39.5977 -39.5976 -39.5910 -39.5909 -39.5874 -39.5874
   -21.1436 -20.9394 -20.7504 -20.1881 -19.8315 -19.4940 -19.3430 -19.2024
   -19.0406 -18.8076 -18.6664 -18.5707 -18.1740 -18.1168 -17.9493 -17.7499
   -12.3769 -12.1419 -12.0735 -11.9348 -11.7092 -11.6870 -11.5809 -10.9700
   -10.9186 -10.6518 -10.5514  -9.8882  -9.7217  -9.3641  -9.1396  -8.6715
    -8.6515  -8.5813  -8.4176  -8.3830  -8.1903  -8.1354  -8.0916  -8.0792
    -7.7173  -7.6521  -7.5228  -7.5029  -7.3667  -7.1987  -7.0962  -6.8728
    -6.6499  -6.4026  -6.1878  -6.1854  -5.9879  -5.9570  -5.8122  -5.7563
    -5.4800  -5.4157  -5.2114  -5.0594  -4.4510  -4.3690  -4.1057  -3.7812
    -0.1846   0.6243   0.9990   1.0860   1.1216   1.2512   1.3587   1.7551
     1.8284   1.8636   2.0157   2.1259   2.2511   2.2902   2.3083   2.3493
     2.4374   2.4403   2.5011   2.5257   2.5642   2.6545

          k = 0.5000-0.0962 0.0000 ( 59291 PWs)   bands (ev):

   -68.0968 -68.0968 -39.5977 -39.5976 -39.5910 -39.5909 -39.5874 -39.5874
   -21.1409 -20.9469 -20.7454 -20.1867 -19.8318 -19.4945 -19.3503 -19.1974
   -19.0414 -18.8068 -18.6580 -18.5770 -18.1631 -18.1320 -17.9457 -17.7499
   -12.3756 -12.1426 -12.0713 -11.9389 -11.7214 -11.6727 -11.5831 -10.9710
   -10.9158 -10.6499 -10.5538  -9.8863  -9.7223  -9.3651  -9.1390  -8.6641
    -8.6518  -8.5797  -8.4222  -8.4051  -8.1881  -8.1202  -8.1047  -8.0668
    -7.7135  -7.6529  -7.5217  -7.5045  -7.3634  -7.1999  -7.0970  -6.8732
    -6.6503  -6.4040  -6.2040  -6.1857  -5.9756  -5.9566  -5.8114  -5.7580
    -5.4811  -5.4119  -5.1983  -5.0708  -4.4339  -4.3916  -4.1003  -3.7819
     0.0298   0.1758   0.9956   1.0919   1.1215   1.2779   1.6112   1.7203
     1.7936   2.0251   2.0417   2.1509   2.2177   2.2845   2.3191   2.3656
     2.4440   2.4953   2.5410   2.5541   2.5839   2.6050

          k =-0.3333-0.3849 0.0000 ( 59291 PWs)   bands (ev):

   -68.0968 -68.0968 -39.5977 -39.5976 -39.5910 -39.5909 -39.5874 -39.5874
   -21.1419 -20.9443 -20.7472 -20.1866 -19.8332 -19.4935 -19.3456 -19.1997
   -19.0448 -18.8050 -18.6592 -18.5762 -18.1651 -18.1296 -17.9459 -17.7501
   -12.3764 -12.1404 -12.0739 -11.9374 -11.7106 -11.6849 -11.5821 -10.9704
   -10.9161 -10.6493 -10.5545  -9.8867  -9.7224  -9.3651  -9.1395  -8.6664
    -8.6508  -8.5810  -8.4192  -8.3975  -8.1899  -8.1255  -8.0914  -8.0815
    -7.7143  -7.6507  -7.5288  -7.4979  -7.3631  -7.2000  -7.0976  -6.8766
    -6.6483  -6.4014  -6.1934  -6.1878  -5.9816  -5.9555  -5.8116  -5.7655
    -5.4809  -5.4082  -5.1988  -5.0706  -4.4355  -4.3900  -4.1001  -3.7819
    -0.0842   0.3519   1.0003   1.0525   1.1800   1.2550   1.4824   1.7672
     1.9235   1.9334   2.0463   2.0631   2.2243   2.2738   2.3092   2.3999
     2.4335   2.4552   2.5397   2.5506   2.5735   2.6429

          k = 0.5000 0.0962 0.0000 ( 59291 PWs)   bands (ev):

   -68.0968 -68.0968 -39.5977 -39.5976 -39.5910 -39.5909 -39.5874 -39.5874
   -21.1409 -20.9468 -20.7454 -20.1867 -19.8318 -19.4945 -19.3503 -19.1974
   -19.0414 -18.8068 -18.6580 -18.5770 -18.1631 -18.1320 -17.9457 -17.7499
   -12.3756 -12.1426 -12.0713 -11.9389 -11.7214 -11.6727 -11.5831 -10.9710
   -10.9158 -10.6499 -10.5538  -9.8863  -9.7223  -9.3650  -9.1390  -8.6641
    -8.6518  -8.5797  -8.4222  -8.4051  -8.1881  -8.1202  -8.1047  -8.0668
    -7.7136  -7.6528  -7.5217  -7.5046  -7.3634  -7.2000  -7.0970  -6.8732
    -6.6502  -6.4040  -6.2040  -6.1856  -5.9756  -5.9566  -5.8115  -5.7580
    -5.4811  -5.4119  -5.1983  -5.0708  -4.4339  -4.3916  -4.1003  -3.7819
     0.0298   0.1758   0.9956   1.0919   1.1215   1.2778   1.6112   1.7203
     1.7936   2.0251   2.0417   2.1508   2.2177   2.2846   2.3192   2.3657
     2.4438   2.4956   2.5408   2.5541   2.5840   2.6039

          k =-0.3333 0.3849 0.0000 ( 59291 PWs)   bands (ev):

   -68.0968 -68.0968 -39.5977 -39.5976 -39.5910 -39.5909 -39.5874 -39.5874
   -21.1419 -20.9443 -20.7472 -20.1866 -19.8332 -19.4935 -19.3456 -19.1998
   -19.0448 -18.8050 -18.6592 -18.5762 -18.1651 -18.1296 -17.9459 -17.7501
   -12.3763 -12.1404 -12.0739 -11.9374 -11.7106 -11.6850 -11.5821 -10.9705
   -10.9161 -10.6493 -10.5545  -9.8867  -9.7223  -9.3650  -9.1395  -8.6664
    -8.6508  -8.5809  -8.4192  -8.3975  -8.1899  -8.1255  -8.0913  -8.0815
    -7.7142  -7.6507  -7.5288  -7.4979  -7.3631  -7.2000  -7.0976  -6.8766
    -6.6484  -6.4014  -6.1934  -6.1878  -5.9815  -5.9556  -5.8116  -5.7655
    -5.4808  -5.4082  -5.1989  -5.0706  -4.4356  -4.3900  -4.1001  -3.7819
    -0.0842   0.3519   1.0002   1.0525   1.1801   1.2550   1.4824   1.7672
     1.9235   1.9334   2.0463   2.0631   2.2246   2.2739   2.3092   2.3999
     2.4336   2.4549   2.5400   2.5514   2.5741   2.6426

          k =-0.1667-0.0962 0.0000 ( 59226 PWs)   bands (ev):

   -68.0968 -68.0968 -39.5977 -39.5976 -39.5910 -39.5909 -39.5874 -39.5874
   -21.3405 -20.5632 -20.3712 -20.3684 -20.0132 -20.0093 -19.8328 -18.7538
   -18.7518 -18.4084 -18.3864 -18.3855 -18.3018 -18.2796 -18.1023 -18.0996
   -12.5406 -12.5267 -12.4356 -11.6089 -11.6066 -11.4624 -11.4413 -10.9534
   -10.9530  -9.9565  -9.9562  -9.7042  -9.4091  -9.3949  -9.2582  -9.2565
    -9.0701  -9.0686  -8.9324  -8.3505  -8.3503  -7.9328  -7.9250  -7.8881
    -7.8724  -7.7991  -7.6155  -7.6073  -7.1273  -7.1170  -6.9884  -6.9164
    -6.9149  -6.8682  -6.5584  -6.5580  -6.2861  -5.3468  -5.3427  -5.1715
    -5.0939  -4.8330  -4.7932  -4.7745  -4.6434  -4.6026  -4.3590  -4.3545
    -0.2638   0.6880   1.0366   1.0840   1.2562   1.4614   1.4714   1.5474
     1.7530   1.8928   1.9965   2.0265   2.0759   2.1589   2.2901   2.3841
     2.4501   2.5109   2.5221   2.5414   2.5812   2.6243

          k =-0.0000-0.1925 0.0000 ( 59226 PWs)   bands (ev):

   -68.0968 -68.0968 -39.5977 -39.5976 -39.5910 -39.5909 -39.5874 -39.5874
   -21.3406 -20.5579 -20.3901 -20.3580 -20.0199 -19.9955 -19.8367 -18.7643
   -18.7370 -18.4355 -18.3872 -18.3743 -18.2828 -18.2809 -18.1158 -18.0914
   -12.5407 -12.5271 -12.4351 -11.6182 -11.5983 -11.4588 -11.4425 -10.9576
   -10.9505  -9.9628  -9.9499  -9.7046  -9.4066  -9.3957  -9.2604  -9.2549
    -9.0702  -9.0693  -8.9328  -8.3544  -8.3453  -7.9339  -7.9256  -7.8763
    -7.8659  -7.8007  -7.6605  -7.5859  -7.1387  -7.0870  -6.9867  -6.9221
    -6.9109  -6.8787  -6.5639  -6.5517  -6.2868  -5.3689  -5.3122  -5.1718
    -5.0935  -4.8706  -4.7990  -4.7552  -4.6160  -4.6053  -4.3865  -4.3360
    -0.2895   0.8326   1.0303   1.0964   1.2521   1.4348   1.4709   1.4794
     1.7659   1.8647   1.8756   1.9596   2.0349   2.2403   2.3106   2.3404
     2.3617   2.5166   2.5554   2.5827   2.6383   2.7017

          k = 0.5000-0.8660 0.0000 ( 59292 PWs)   bands (ev):

   -68.0968 -68.0968 -39.5977 -39.5976 -39.5910 -39.5909 -39.5874 -39.5874
   -21.0766 -21.0742 -20.4943 -20.4940 -19.4582 -19.4577 -19.4312 -19.4308
   -19.0182 -19.0167 -18.3576 -18.3572 -18.3356 -18.3319 -17.8176 -17.8173
   -12.1019 -12.1008 -12.0875 -12.0845 -11.9046 -11.9040 -11.3573 -11.3557
   -10.2626 -10.2622 -10.1621 -10.1617 -10.1555 -10.1553  -8.5813  -8.5790
    -8.5752  -8.5718  -8.5705  -8.5680  -7.8926  -7.8923  -7.8885  -7.8882
    -7.8481  -7.8479  -7.7828  -7.7812  -7.5179  -7.5159  -6.6382  -6.6378
    -6.3621  -6.3589  -6.3074  -6.3055  -6.2174  -6.2162  -5.7192  -5.7173
    -5.5732  -5.5715  -4.7441  -4.7430  -4.7043  -4.6982  -3.8929  -3.8922
     0.0387   0.1628   1.0208   1.0348   1.4036   1.4177   1.5042   1.5234
     1.7823   1.7825   2.0622   2.0734   2.2025   2.2199   2.4107   2.4202
     2.4454   2.4629   2.5353   2.5457   2.5637   2.5828

          k =-1.0000 0.0000 0.0000 ( 59292 PWs)   bands (ev):

   -68.0968 -68.0968 -39.5977 -39.5976 -39.5910 -39.5909 -39.5874 -39.5874
   -21.1011 -21.0469 -20.5114 -20.4813 -19.4775 -19.4347 -19.4301 -19.4290
   -19.0411 -18.9973 -18.4032 -18.3402 -18.3305 -18.3079 -17.8310 -17.8059
   -12.1379 -12.0979 -12.0737 -12.0612 -11.9171 -11.8926 -11.3778 -11.3369
   -10.2837 -10.2560 -10.1650 -10.1595 -10.1505 -10.1464  -8.6269  -8.6079
    -8.5784  -8.5604  -8.5445  -8.5157  -7.9132  -7.9035  -7.8863  -7.8767
    -7.8405  -7.8401  -7.8204  -7.7538  -7.5426  -7.4938  -6.6456  -6.6278
    -6.3983  -6.3174  -6.3075  -6.2947  -6.2369  -6.1996  -5.7544  -5.6916
    -5.5946  -5.5502  -4.8100  -4.7246  -4.6865  -4.6676  -3.9193  -3.8689
    -0.2183   0.7860   1.0157   1.0572   1.2502   1.2749   1.5096   1.5597
     1.6086   1.6596   1.8744   2.1492   2.1889   2.3076   2.3168   2.3654
     2.4268   2.4834   2.5733   2.5760   2.6217   2.6383

     the Fermi energy is    -0.8218 ev

!    total energy              =   -1133.81168534 Ry

     total all-electron energy =     -6753.487388 Ry
     estimated scf accuracy    <       0.00000002 Ry
     smearing contrib. (-TS)   =      -0.00000000 Ry
     internal energy E=F+TS    =   -1133.81168534 Ry

     The total energy is F=E-TS. E is the sum of the following terms:
     one-electron contribution =   -3914.16840077 Ry
     hartree contribution      =    1985.62979937 Ry
     xc contribution           =    -186.19840584 Ry
     ewald contribution        =    1340.29219155 Ry
     DFT-D3 Dispersion         =      -0.13884776 Ry
     one-center paw contrib.   =    -359.22802189 Ry

     total magnetization       =    12.00 Bohr mag/cell
     absolute magnetization    =    12.00 Bohr mag/cell

     convergence has been achieved in  12 iterations

     Writing output data file ./mytmp/Crdimer0.24-0.3.save/
 
     init_run     :     18.58s CPU     19.66s WALL (       1 calls)
     electrons    :    448.83s CPU    479.79s WALL (       1 calls)

     Called by init_run:
     wfcinit      :     13.61s CPU     14.26s WALL (       1 calls)
     potinit      :      1.49s CPU      1.55s WALL (       1 calls)
     hinit0       :      1.56s CPU      1.66s WALL (       1 calls)

     Called by electrons:
     c_bands      :    364.85s CPU    388.53s WALL (      12 calls)
     sum_band     :     64.80s CPU     69.39s WALL (      12 calls)
     v_of_rho     :      4.02s CPU      4.24s WALL (      13 calls)
     newd         :      8.55s CPU     11.09s WALL (      13 calls)
     PAW_pot      :      6.36s CPU      6.45s WALL (      13 calls)
     mix_rho      :      0.83s CPU      0.84s WALL (      12 calls)

     Called by c_bands:
     init_us_2    :      4.31s CPU      4.34s WALL (     750 calls)
     cegterg      :    354.25s CPU    377.85s WALL (     360 calls)

     Called by *egterg:
     cdiaghg      :     23.91s CPU     38.47s WALL (    2583 calls)
     h_psi        :    226.92s CPU    235.64s WALL (    2613 calls)
     s_psi        :     25.34s CPU     25.35s WALL (    2613 calls)
     g_psi        :      0.68s CPU      0.70s WALL (    2223 calls)

     Called by h_psi:
     h_psi:calbec :     26.05s CPU     26.61s WALL (    2613 calls)
     vloc_psi     :    173.16s CPU    181.23s WALL (    2613 calls)
     add_vuspsi   :     25.73s CPU     25.81s WALL (    2613 calls)

     General routines
     calbec       :     34.11s CPU     34.83s WALL (    2973 calls)
     fft          :      3.74s CPU      4.36s WALL (     319 calls)
     ffts         :      0.09s CPU      0.10s WALL (      50 calls)
     fftw         :    175.96s CPU    184.31s WALL (  228974 calls)
     interpolate  :      0.36s CPU      0.38s WALL (      26 calls)
 
     Parallel routines
     fft_scatt_xy :     27.40s CPU     28.41s WALL (  229343 calls)
     fft_scatt_yz :     69.75s CPU     74.68s WALL (  229343 calls)
 
     PWSCF        :   7m49.40s CPU   8m23.52s WALL

 
   This run was terminated on:  22:18:20  29Mar2021            

=------------------------------------------------------------------------------=
   JOB DONE.
=------------------------------------------------------------------------------=
