
     Program PWSCF v.6.7MaX starts on 29Mar2021 at 23:17:21 

     This program is part of the open-source Quantum ESPRESSO suite
     for quantum simulation of materials; please cite
         "P. Giannozzi et al., J. Phys.:Condens. Matter 21 395502 (2009);
         "P. Giannozzi et al., J. Phys.:Condens. Matter 29 465901 (2017);
          URL http://www.quantum-espresso.org", 
     in publications or presentations arising from this work. More details at
     http://www.quantum-espresso.org/quote

     Parallel version (MPI), running on    48 processors

     MPI processes distributed on     1 nodes
     R & G space division:  proc/nbgrp/npool/nimage =      48
     Reading input from Crdimer0.26-0.5.scf.in

     Current dimensions of program PWSCF are:
     Max number of different atomic species (ntypx) = 10
     Max number of k-points (npk) =  40000
     Max angular momentum in pseudopotentials (lmaxx) =  3
     file N.pbe-n-kjpaw_psl.1.0.0.UPF: wavefunction(s)  2S renormalized
     file Cr.pbe-spn-kjpaw_psl.1.0.0.UPF: wavefunction(s)  3S 3P 3D renormalized
     file Cr.pbe-spn-kjpaw_psl.1.0.0.UPF: wavefunction(s)  3S 3P 3D renormalized

     --------------------------------------------
     Parameters for DFT-D3 Dispersion Correction:
     --------------------------------------------
       Reference C6 values for interpolation: 

         atom   Coordination number   C6
         B          0.000           214.36
         B          0.971           150.74
         B          1.944           106.23
         B          2.913            62.89
         B          4.586            56.06
         N          0.000            50.54
         N          0.994            44.25
         N          2.014            39.35
         N          2.990            31.16
         Cr1        0.000          1381.48
         Cr1        1.827           571.38
         Cr1       10.619           306.69
         Cr2        0.000          1381.48
         Cr2        1.827           571.38
         Cr2       10.619           306.69

       Values used:

         atom   Coordination number  R0_AB[au]  C6      C8
         B          3.338            3.039     62.89   2505.94
         B          3.338            3.039     62.89   2505.95
         B          3.335            3.039     62.89   2506.01
         B          3.335            3.039     62.89   2506.01
         B          3.338            3.039     62.89   2505.95
         B          3.338            3.039     62.89   2505.94
         N          3.136            2.478     31.22    688.68
         N          3.143            2.478     31.21    688.62
         N          3.134            2.478     31.22    688.70
         N          3.134            2.478     31.22    688.70
         N          3.136            2.478     31.22    688.68
         N          3.145            2.478     31.21    688.60
         N          3.144            2.478     31.21    688.61
         N          3.134            2.478     31.22    688.69
         N          3.134            2.478     31.22    688.69
         B          3.384            3.039     62.86   2504.60
         B          3.338            3.039     62.89   2505.95
         B          3.338            3.039     62.89   2505.94
         B          3.338            3.039     62.89   2505.95
         B          3.338            3.039     62.89   2505.94
         B          3.384            3.039     62.86   2504.60
         N          3.144            2.478     31.21    688.61
         B          3.341            3.039     62.89   2505.86
         B          3.339            3.039     62.89   2505.90
         B          3.335            3.039     62.89   2506.00
         N          3.145            2.478     31.21    688.60
         N          3.143            2.478     31.21    688.62
         N          3.135            2.478     31.22    688.69
         N          3.135            2.478     31.22    688.69
         N          3.134            2.478     31.22    688.70
         N          3.134            2.478     31.22    688.70
         B          3.335            3.039     62.89   2506.00
         Cr1        0.108            3.252   1381.48 127494.70
         Cr2        0.108            3.252   1381.48 127494.70

         Molecular C6 ( Ry / a.u.^6 ) =     79164.05


     Subspace diagonalization in iterative solution of the eigenvalue problem:
     one sub-group per band group will be used
     scalapack distributed-memory algorithm (size of sub-group:  6*  6 procs)

 
     Parallelization info
     --------------------
     sticks:   dense  smooth     PW     G-vecs:    dense   smooth      PW
     Min         235      98     26                36277     9874    1408
     Max         236      99     27                36282     9883    1425
     Sum       11311    4741   1285              1741401   474235   68095
 


     bravais-lattice index     =            4
     lattice parameter (alat)  =      18.9275  a.u.
     unit-cell volume          =   10553.3021 (a.u.)^3
     number of atoms/cell      =           34
     number of atomic types    =            4
     number of electrons       =       156.00
     number of Kohn-Sham states=           94
     kinetic-energy cutoff     =      48.0000  Ry
     charge density cutoff     =     457.0000  Ry
     scf convergence threshold =      1.0E-07
     mixing beta               =       0.5000
     number of iterations used =            8  plain     mixing
     Exchange-correlation= SLA  PW   PBX  PBC
                           (   1   4   3   4   0   0   0)

     celldm(1)=  18.927497  celldm(2)=   0.000000  celldm(3)=   1.797125
     celldm(4)=   0.000000  celldm(5)=   0.000000  celldm(6)=   0.000000

     crystal axes: (cart. coord. in units of alat)
               a(1) = (   1.000000   0.000000   0.000000 )  
               a(2) = (  -0.500000   0.866025   0.000000 )  
               a(3) = (   0.000000   0.000000   1.797125 )  

     reciprocal axes: (cart. coord. in units 2 pi/alat)
               b(1) = (  1.000000  0.577350  0.000000 )  
               b(2) = (  0.000000  1.154701  0.000000 )  
               b(3) = (  0.000000  0.000000  0.556444 )  


     PseudoPot. # 1 for B  read from file:
     /home/sf05/q-e-qe-6.7MaX-Release/pseudo/B.pbe-n-kjpaw_psl.1.0.0.UPF
     MD5 check sum: d9c678ba5d3b2fd7b74e61139c9288d8
     Pseudo is Projector augmented-wave + core cor, Zval =  3.0
     Generated using "atomic" code by A. Dal Corso  v.5.1.2
     Shape of augmentation charge: PSQ
     Using radial grid of 1059 points,  4 beta functions with: 
                l(1) =   0
                l(2) =   0
                l(3) =   1
                l(4) =   1
     Q(r) pseudized with 0 coefficients 


     PseudoPot. # 2 for N  read from file:
     /home/sf05/q-e-qe-6.7MaX-Release/pseudo/N.pbe-n-kjpaw_psl.1.0.0.UPF
     MD5 check sum: e0e4e94a9c4025c5b51bd7d8793849bd
     Pseudo is Projector augmented-wave + core cor, Zval =  5.0
     Generated using "atomic" code by A. Dal Corso  v.5.1.2
     Shape of augmentation charge: PSQ
     Using radial grid of 1085 points,  4 beta functions with: 
                l(1) =   0
                l(2) =   0
                l(3) =   1
                l(4) =   1
     Q(r) pseudized with 0 coefficients 


     PseudoPot. # 3 for Cr read from file:
     /home/sf05/q-e-qe-6.7MaX-Release/pseudo/Cr.pbe-spn-kjpaw_psl.1.0.0.UPF
     MD5 check sum: 198f1a2427a48552563eee314eba32ba
     Pseudo is Projector augmented-wave + core cor, Zval = 14.0
     Generated using &quot;atomic&quot; code by A. Dal Corso  v.6.3
     Shape of augmentation charge: PSQ
     Using radial grid of 1183 points,  6 beta functions with: 
                l(1) =   0
                l(2) =   0
                l(3) =   1
                l(4) =   1
                l(5) =   2
                l(6) =   2
     Q(r) pseudized with 0 coefficients 


     PseudoPot. # 4 for Cr read from file:
     /home/sf05/q-e-qe-6.7MaX-Release/pseudo/Cr.pbe-spn-kjpaw_psl.1.0.0.UPF
     MD5 check sum: 198f1a2427a48552563eee314eba32ba
     Pseudo is Projector augmented-wave + core cor, Zval = 14.0
     Generated using &quot;atomic&quot; code by A. Dal Corso  v.6.3
     Shape of augmentation charge: PSQ
     Using radial grid of 1183 points,  6 beta functions with: 
                l(1) =   0
                l(2) =   0
                l(3) =   1
                l(4) =   1
                l(5) =   2
                l(6) =   2
     Q(r) pseudized with 0 coefficients 


     atomic species   valence    mass     pseudopotential
        B              3.00    10.81100     B ( 1.00)
        N              5.00    14.00674     N ( 1.00)
        Cr1           14.00    51.99610     Cr( 1.00)
        Cr2           14.00    51.99610     Cr( 1.00)

     Starting magnetic structure 
     atomic species   magnetization
        B            0.000
        N            0.000
        Cr1          1.000
        Cr2          1.000

     No symmetry found



   Cartesian axes

     site n.     atom                  positions (alat units)
         1           B   tau(   1) = (  -0.1250000   0.2165064   0.8985623  )
         2           B   tau(   2) = (   0.3750000   0.6495191   0.8985623  )
         3           B   tau(   3) = (   0.2500000   0.0000000   0.8985623  )
         4           B   tau(   4) = (   0.7500000   0.0000000   0.8985623  )
         5           B   tau(   5) = (   0.1250000   0.2165064   0.8985623  )
         6           B   tau(   6) = (  -0.3750000   0.6495191   0.8985623  )
         7           N   tau(   7) = (   0.7500005   0.2886748   0.8985623  )
         8           N   tau(   8) = (   0.3750005   0.5051812   0.8985623  )
         9           N   tau(   9) = (   0.3750005   0.0721685   0.8985623  )
        10           N   tau(  10) = (   0.6250005   0.0721685   0.8985623  )
        11           N   tau(  11) = (   0.2500005   0.2886748   0.8985623  )
        12           N   tau(  12) = (   0.6250005   0.5051812   0.8985623  )
        13           N   tau(  13) = (   0.0000005   0.2886748   0.8985623  )
        14           N   tau(  14) = (   0.2500005   0.7216875   0.8985623  )
        15           N   tau(  15) = (  -0.2499995   0.7216875   0.8985623  )
        16           B   tau(  16) = (   0.0000000   0.4330127   0.8985623  )
        17           B   tau(  17) = (   0.1250000   0.6495191   0.8985623  )
        18           B   tau(  18) = (  -0.1250000   0.6495191   0.8985623  )
        19           B   tau(  19) = (   0.3750000   0.2165064   0.8985623  )
        20           B   tau(  20) = (   0.6250000   0.2165064   0.8985623  )
        21           B   tau(  21) = (   0.5000000   0.4330127   0.8985623  )
        22           N   tau(  22) = (   0.5000005   0.2886748   0.8985623  )
        23           B   tau(  23) = (  -0.2500000   0.4330127   0.8985623  )
        24           B   tau(  24) = (   0.2500000   0.4330127   0.8985623  )
        25           B   tau(  25) = (   0.5000000   0.0000000   0.8985623  )
        26           N   tau(  26) = (  -0.1249995   0.5051812   0.8985623  )
        27           N   tau(  27) = (   0.1250005   0.5051812   0.8985623  )
        28           N   tau(  28) = (   0.0000005   0.7216875   0.8985623  )
        29           N   tau(  29) = (   0.5000005   0.7216875   0.8985623  )
        30           N   tau(  30) = (   0.1250005   0.0721685   0.8985623  )
        31           N   tau(  31) = (   0.8750005   0.0721685   0.8985623  )
        32           B   tau(  32) = (   0.0000000   0.0000000   0.8985623  )
        33           Cr1 tau(  33) = (   0.5100000   0.4330127   1.2040735  )
        34           Cr2 tau(  34) = (  -0.0100000   0.4330127   1.2040735  )

     number of k points=    15  Gaussian smearing, width (Ry)=  0.0000
                       cart. coord. in units 2pi/alat
        k(    1) = (   0.1666667   0.2886751   0.0000000), wk =   0.0740741
        k(    2) = (   0.1666667  -0.4811252   0.0000000), wk =   0.0740741
        k(    3) = (   0.1666667  -0.0962250   0.0000000), wk =   0.0740741
        k(    4) = (  -0.5000000  -0.8660254   0.0000000), wk =   0.0370370
        k(    5) = (  -0.1666667   0.2886751   0.0000000), wk =   0.0740741
        k(    6) = (   0.3333333   0.0000000   0.0000000), wk =   0.0740741
        k(    7) = (  -0.1666667  -0.4811252   0.0000000), wk =   0.0740741
        k(    8) = (   0.5000000  -0.0962250   0.0000000), wk =   0.0740741
        k(    9) = (  -0.3333333  -0.3849002   0.0000000), wk =   0.0740741
        k(   10) = (   0.5000000   0.0962250   0.0000000), wk =   0.0740741
        k(   11) = (  -0.3333333   0.3849002   0.0000000), wk =   0.0740741
        k(   12) = (  -0.1666667  -0.0962250   0.0000000), wk =   0.0740741
        k(   13) = (  -0.0000000  -0.1924501   0.0000000), wk =   0.0740741
        k(   14) = (   0.5000000  -0.8660254   0.0000000), wk =   0.0370370
        k(   15) = (  -1.0000000   0.0000000   0.0000000), wk =   0.0370370

     Dense  grid:  1741401 G-vectors     FFT dimensions: ( 135, 135, 240)

     Smooth grid:   474235 G-vectors     FFT dimensions: (  90,  90, 160)

     Estimated max dynamical RAM per process >     218.62 MB

     Estimated total dynamical RAM >      10.25 GB
     Generating pointlists ...
     new r_m :   0.0595 (alat units)  1.1269 (a.u.) for type    1
     new r_m :   0.0595 (alat units)  1.1269 (a.u.) for type    2
     new r_m :   0.1261 (alat units)  2.3866 (a.u.) for type    3
     new r_m :   0.1261 (alat units)  2.3866 (a.u.) for type    4

     Initial potential from superposition of free atoms

     starting charge  155.99382, renormalised to  156.00000

     negative rho (up, down):  6.500E-03 4.655E-04
     Starting wfcs are  148 randomized atomic wfcs
     Checking if some PAW data can be deallocated... 

     total cpu time spent up to now is       20.2 secs

     Self-consistent Calculation

     iteration #  1     ecut=    48.00 Ry     beta= 0.50
     Davidson diagonalization with overlap
     ethr =  1.00E-02,  avg # of iterations =  3.0

     negative rho (up, down):  4.689E-03 2.938E-03

     total cpu time spent up to now is       63.4 secs

     total energy              =   -1130.76513499 Ry
     estimated scf accuracy    <      11.37845943 Ry

     total magnetization       =    12.00 Bohr mag/cell
     absolute magnetization    =    12.14 Bohr mag/cell

     iteration #  2     ecut=    48.00 Ry     beta= 0.50
     Davidson diagonalization with overlap
     ethr =  7.29E-03,  avg # of iterations =  2.8

     negative rho (up, down):  6.789E-03 1.038E-02

     total cpu time spent up to now is      103.9 secs

     total energy              =   -1133.16059307 Ry
     estimated scf accuracy    <       3.02143449 Ry

     total magnetization       =    12.00 Bohr mag/cell
     absolute magnetization    =    12.01 Bohr mag/cell

     iteration #  3     ecut=    48.00 Ry     beta= 0.50
     Davidson diagonalization with overlap
     ethr =  1.94E-03,  avg # of iterations =  6.5

     negative rho (up, down):  3.743E-03 6.745E-03

     total cpu time spent up to now is      143.6 secs

     total energy              =   -1133.65253108 Ry
     estimated scf accuracy    <       0.58013630 Ry

     total magnetization       =    12.00 Bohr mag/cell
     absolute magnetization    =    12.05 Bohr mag/cell

     iteration #  4     ecut=    48.00 Ry     beta= 0.50
     Davidson diagonalization with overlap
     ethr =  3.72E-04,  avg # of iterations =  8.7

     negative rho (up, down):  7.015E-03 1.450E-02

     total cpu time spent up to now is      186.1 secs

     total energy              =   -1133.78954279 Ry
     estimated scf accuracy    <       0.27947137 Ry

     total magnetization       =    12.00 Bohr mag/cell
     absolute magnetization    =    12.00 Bohr mag/cell

     iteration #  5     ecut=    48.00 Ry     beta= 0.50
     Davidson diagonalization with overlap
     c_bands:  2 eigenvalues not converged
     c_bands:  1 eigenvalues not converged
     ethr =  1.79E-04,  avg # of iterations =  8.9

     negative rho (up, down):  4.475E-03 9.988E-03

     total cpu time spent up to now is      228.1 secs

     total energy              =   -1133.80698274 Ry
     estimated scf accuracy    <       0.01645031 Ry

     total magnetization       =    12.00 Bohr mag/cell
     absolute magnetization    =    12.00 Bohr mag/cell

     iteration #  6     ecut=    48.00 Ry     beta= 0.50
     Davidson diagonalization with overlap
     c_bands:  2 eigenvalues not converged
     c_bands:  1 eigenvalues not converged
     c_bands:  1 eigenvalues not converged
     c_bands:  2 eigenvalues not converged
     c_bands:  2 eigenvalues not converged
     ethr =  1.05E-05,  avg # of iterations = 13.5

     negative rho (up, down):  3.336E-03 7.818E-03

     total cpu time spent up to now is      291.8 secs

     total energy              =   -1133.81015110 Ry
     estimated scf accuracy    <       0.00533681 Ry

     total magnetization       =    12.00 Bohr mag/cell
     absolute magnetization    =    12.01 Bohr mag/cell

     iteration #  7     ecut=    48.00 Ry     beta= 0.50
     Davidson diagonalization with overlap
     ethr =  3.42E-06,  avg # of iterations =  8.8

     negative rho (up, down):  3.001E-03 7.501E-03

     total cpu time spent up to now is      337.5 secs

     total energy              =   -1133.81085543 Ry
     estimated scf accuracy    <       0.00055363 Ry

     total magnetization       =    12.00 Bohr mag/cell
     absolute magnetization    =    12.01 Bohr mag/cell

     iteration #  8     ecut=    48.00 Ry     beta= 0.50
     Davidson diagonalization with overlap
     ethr =  3.55E-07,  avg # of iterations =  4.8

     negative rho (up, down):  2.877E-03 7.336E-03

     total cpu time spent up to now is      375.9 secs

     total energy              =   -1133.81099336 Ry
     estimated scf accuracy    <       0.00004221 Ry

     total magnetization       =    12.00 Bohr mag/cell
     absolute magnetization    =    12.00 Bohr mag/cell

     iteration #  9     ecut=    48.00 Ry     beta= 0.50
     Davidson diagonalization with overlap
     ethr =  2.71E-08,  avg # of iterations =  5.0

     negative rho (up, down):  2.842E-03 7.301E-03

     total cpu time spent up to now is      421.5 secs

     total energy              =   -1133.81105889 Ry
     estimated scf accuracy    <       0.00002436 Ry

     total magnetization       =    12.00 Bohr mag/cell
     absolute magnetization    =    12.00 Bohr mag/cell

     iteration # 10     ecut=    48.00 Ry     beta= 0.50
     Davidson diagonalization with overlap
     ethr =  1.56E-08,  avg # of iterations =  2.0

     negative rho (up, down):  2.832E-03 7.298E-03

     total cpu time spent up to now is      457.5 secs

     total energy              =   -1133.81108072 Ry
     estimated scf accuracy    <       0.00000128 Ry

     total magnetization       =    12.00 Bohr mag/cell
     absolute magnetization    =    12.00 Bohr mag/cell

     iteration # 11     ecut=    48.00 Ry     beta= 0.50
     Davidson diagonalization with overlap
     ethr =  8.23E-10,  avg # of iterations =  4.5

     negative rho (up, down):  2.828E-03 7.299E-03

     total cpu time spent up to now is      505.2 secs

     total energy              =   -1133.81108841 Ry
     estimated scf accuracy    <       0.00000063 Ry

     total magnetization       =    12.00 Bohr mag/cell
     absolute magnetization    =    12.00 Bohr mag/cell

     iteration # 12     ecut=    48.00 Ry     beta= 0.50
     Davidson diagonalization with overlap
     ethr =  4.02E-10,  avg # of iterations =  2.2

     negative rho (up, down):  2.826E-03 7.303E-03
 
     Magnetic moment per site:
     atom:    1    charge:    0.8804    magn:    0.0005    constr:    0.0000
     atom:    2    charge:    0.8804    magn:    0.0005    constr:    0.0000
     atom:    3    charge:    0.8803    magn:    0.0001    constr:    0.0000
     atom:    4    charge:    0.8803    magn:    0.0000    constr:    0.0000
     atom:    5    charge:    0.8804    magn:    0.0006    constr:    0.0000
     atom:    6    charge:    0.8804    magn:    0.0006    constr:    0.0000
     atom:    7    charge:    2.8607    magn:    0.0028    constr:    0.0000
     atom:    8    charge:    2.8606    magn:    0.0076    constr:    0.0000
     atom:    9    charge:    2.8609    magn:    0.0003    constr:    0.0000
     atom:   10    charge:    2.8609    magn:    0.0004    constr:    0.0000
     atom:   11    charge:    2.8608    magn:    0.0021    constr:    0.0000
     atom:   12    charge:    2.8606    magn:    0.0086    constr:    0.0000
     atom:   13    charge:    2.8595    magn:    0.0078    constr:    0.0000
     atom:   14    charge:    2.8599    magn:    0.0004    constr:    0.0000
     atom:   15    charge:    2.8599    magn:    0.0005    constr:    0.0000
     atom:   16    charge:    0.8810    magn:    0.0004    constr:    0.0000
     atom:   17    charge:    0.8801    magn:    0.0005    constr:    0.0000
     atom:   18    charge:    0.8801    magn:    0.0006    constr:    0.0000
     atom:   19    charge:    0.8798    magn:    0.0006    constr:    0.0000
     atom:   20    charge:    0.8798    magn:    0.0005    constr:    0.0000
     atom:   21    charge:    0.8808    magn:    0.0004    constr:    0.0000
     atom:   22    charge:    2.8608    magn:    0.0078    constr:    0.0000
     atom:   23    charge:    0.8800    magn:    0.0009    constr:    0.0000
     atom:   24    charge:    0.8799    magn:    0.0008    constr:    0.0000
     atom:   25    charge:    0.8800    magn:    0.0002    constr:    0.0000
     atom:   26    charge:    2.8594    magn:    0.0086    constr:    0.0000
     atom:   27    charge:    2.8595    magn:    0.0076    constr:    0.0000
     atom:   28    charge:    2.8597    magn:    0.0011    constr:    0.0000
     atom:   29    charge:    2.8595    magn:    0.0011    constr:    0.0000
     atom:   30    charge:    2.8596    magn:    0.0003    constr:    0.0000
     atom:   31    charge:    2.8596    magn:    0.0004    constr:    0.0000
     atom:   32    charge:    0.8802    magn:    0.0002    constr:    0.0000
     atom:   33    charge:   12.7567    magn:    4.7528    constr:    0.0000
     atom:   34    charge:   12.7568    magn:    4.7529    constr:    0.0000

     total cpu time spent up to now is      541.0 secs

     End of self-consistent calculation

 ------ SPIN UP ------------


          k = 0.1667 0.2887 0.0000 ( 59267 PWs)   bands (ev):

   -72.4644 -72.4634 -43.9274 -43.9264 -43.9237 -43.9227 -43.9226 -43.9217
   -21.2595 -20.6736 -20.6684 -20.1187 -20.1079 -19.6006 -19.5958 -19.1125
   -18.7100 -18.7043 -18.4721 -18.4623 -18.2076 -18.0986 -18.0920 -17.8630
   -12.4967 -12.2213 -12.2118 -11.8333 -11.8305 -11.6706 -11.2048 -11.2014
   -10.4047 -10.3804 -10.1304 -10.1278  -9.6019  -9.6005  -8.8497  -8.8406
    -8.8344  -8.7786  -8.7743  -8.6092  -8.2097  -8.0568  -8.0408  -7.8418
    -7.8391  -7.4515  -7.4499  -7.3112  -7.2574  -7.2207  -7.2188  -6.9748
    -6.9662  -6.5720  -6.5612  -6.1663  -6.1654  -5.8859  -5.4314  -5.3047
    -5.2911  -5.2128  -4.9348  -4.9073  -4.5205  -4.3706  -4.3566  -3.9931
    -2.2629  -1.6295  -1.4198  -1.4059  -1.3903  -1.3767  -1.3638  -1.3619
    -1.3461  -1.3416  -1.3169  -1.2673   0.6450   0.7956   0.9714   1.2140
     1.2241   1.4352   1.4899   1.5575   1.5769   1.5940

          k = 0.1667-0.4811 0.0000 ( 59291 PWs)   bands (ev):

   -72.4644 -72.4634 -43.9274 -43.9264 -43.9237 -43.9227 -43.9227 -43.9217
   -21.1289 -20.9254 -20.7356 -20.1735 -19.8173 -19.4796 -19.3298 -19.1877
   -19.0274 -18.7921 -18.6533 -18.5579 -18.1611 -18.1036 -17.9355 -17.7372
   -12.3607 -12.1257 -12.0569 -11.9195 -11.6923 -11.6712 -11.5655 -10.9546
   -10.9028 -10.6366 -10.5362  -9.8727  -9.7061  -9.3489  -9.1235  -8.6807
    -8.6348  -8.5661  -8.4019  -8.3808  -8.1745  -8.1401  -8.0753  -8.0625
    -7.7004  -7.6358  -7.5067  -7.4869  -7.3708  -7.1837  -7.0803  -6.8744
    -6.6348  -6.4039  -6.1892  -6.1701  -5.9888  -5.9420  -5.7961  -5.7579
    -5.4642  -5.4144  -5.2212  -5.0564  -4.4574  -4.3634  -4.1039  -3.7805
    -2.2533  -1.6368  -1.4178  -1.4054  -1.3887  -1.3738  -1.3705  -1.3615
    -1.3458  -1.3413  -1.3169  -1.2673   0.6279   0.6541   1.0250   1.0416
     1.1728   1.2806   1.4135   1.7140   1.8251   1.9234

          k = 0.1667-0.0962 0.0000 ( 59226 PWs)   bands (ev):

   -72.4644 -72.4634 -43.9274 -43.9264 -43.9237 -43.9227 -43.9227 -43.9217
   -21.3260 -20.5480 -20.3568 -20.3539 -19.9996 -19.9949 -19.8192 -18.7401
   -18.7370 -18.3882 -18.3790 -18.3700 -18.2839 -18.2731 -18.0894 -18.0864
   -12.5225 -12.5124 -12.4206 -11.5922 -11.5902 -11.4411 -11.4307 -10.9379
   -10.9373  -9.9410  -9.9400  -9.6886  -9.3873  -9.3852  -9.2427  -9.2412
    -9.0548  -9.0532  -8.9368  -8.3357  -8.3349  -7.9136  -7.9111  -7.8965
    -7.8580  -7.7828  -7.6176  -7.6051  -7.1349  -7.1186  -6.9715  -6.9000
    -6.8985  -6.8658  -6.5427  -6.5418  -6.2700  -5.3513  -5.3431  -5.1559
    -5.0779  -4.8178  -4.8115  -4.7678  -4.6309  -4.6220  -4.3602  -4.3539
    -2.2725  -1.6220  -1.4217  -1.4064  -1.3927  -1.3797  -1.3628  -1.3575
    -1.3464  -1.3419  -1.3169  -1.2674   0.6628   0.9145   0.9732   1.2128
     1.2636   1.3476   1.4147   1.5248   1.5605   1.6869

          k =-0.5000-0.8660 0.0000 ( 59292 PWs)   bands (ev):

   -72.4644 -72.4634 -43.9274 -43.9264 -43.9237 -43.9227 -43.9227 -43.9218
   -21.0634 -21.0583 -20.4806 -20.4790 -19.4375 -19.4339 -19.4260 -19.4238
   -19.0057 -19.0017 -18.3395 -18.3343 -18.3309 -18.3238 -17.8052 -17.8036
   -12.0847 -12.0797 -12.0755 -12.0704 -11.8890 -11.8870 -11.3428 -11.3397
   -10.2469 -10.2453 -10.1473 -10.1459 -10.1413 -10.1402  -8.5876  -8.5777
    -8.5599  -8.5570  -8.5563  -8.5532  -7.8754  -7.8740  -7.8729  -7.8722
    -7.8349  -7.8339  -7.7845  -7.7809  -7.5027  -7.4986  -6.6228  -6.6211
    -6.3667  -6.3579  -6.3136  -6.3090  -6.2030  -6.2001  -5.7215  -5.7158
    -5.5582  -5.5543  -4.7317  -4.7248  -4.7217  -4.7140  -3.8936  -3.8897
    -2.0556  -1.9079  -1.3970  -1.3846  -1.3766  -1.3728  -1.3716  -1.3628
    -1.3602  -1.3534  -1.3482  -1.3398   1.0258   1.0395   1.0742   1.1387
     1.3446   1.3778   1.4735   1.5510   1.6437   1.6645

          k =-0.1667 0.2887 0.0000 ( 59267 PWs)   bands (ev):

   -72.4644 -72.4634 -43.9274 -43.9264 -43.9237 -43.9227 -43.9227 -43.9217
   -21.2595 -20.6737 -20.6684 -20.1187 -20.1079 -19.6006 -19.5958 -19.1125
   -18.7100 -18.7042 -18.4721 -18.4624 -18.2076 -18.0986 -18.0920 -17.8630
   -12.4967 -12.2213 -12.2118 -11.8333 -11.8305 -11.6707 -11.2048 -11.2014
   -10.4048 -10.3804 -10.1304 -10.1277  -9.6019  -9.6005  -8.8497  -8.8405
    -8.8343  -8.7786  -8.7743  -8.6091  -8.2097  -8.0568  -8.0408  -7.8418
    -7.8390  -7.4515  -7.4498  -7.3112  -7.2574  -7.2207  -7.2187  -6.9748
    -6.9663  -6.5720  -6.5612  -6.1663  -6.1653  -5.8859  -5.4315  -5.3047
    -5.2911  -5.2127  -4.9348  -4.9073  -4.5205  -4.3706  -4.3566  -3.9931
    -2.2629  -1.6295  -1.4198  -1.4059  -1.3903  -1.3767  -1.3638  -1.3619
    -1.3461  -1.3416  -1.3169  -1.2673   0.6450   0.7956   0.9715   1.2140
     1.2241   1.4353   1.4899   1.5575   1.5770   1.5940

          k = 0.3333 0.0000 0.0000 ( 59267 PWs)   bands (ev):

   -72.4644 -72.4634 -43.9274 -43.9264 -43.9237 -43.9227 -43.9227 -43.9217
   -21.2592 -20.6966 -20.6454 -20.1174 -20.1080 -19.6242 -19.5739 -19.1142
   -18.7255 -18.6845 -18.4728 -18.4633 -18.2035 -18.1199 -18.0766 -17.8622
   -12.4961 -12.2214 -12.2118 -11.8411 -11.8248 -11.6691 -11.2206 -11.1857
   -10.4039 -10.3803 -10.1429 -10.1160  -9.6078  -9.5935  -8.8577  -8.8360
    -8.8277  -8.7991  -8.7557  -8.6095  -8.2111  -8.1161  -7.9808  -7.8405
    -7.8386  -7.4574  -7.4431  -7.3078  -7.2574  -7.2295  -7.2098  -6.9754
    -6.9670  -6.6307  -6.5090  -6.1689  -6.1619  -5.8910  -5.4311  -5.3228
    -5.2650  -5.2131  -4.9322  -4.9120  -4.5115  -4.3960  -4.3415  -3.9930
    -2.1718  -1.7658  -1.4091  -1.3956  -1.3864  -1.3725  -1.3613  -1.3582
    -1.3565  -1.3505  -1.3319  -1.3283   0.9796   1.0688   1.1034   1.1756
     1.2977   1.3238   1.3722   1.4992   1.5357   1.5754

          k =-0.1667-0.4811 0.0000 ( 59291 PWs)   bands (ev):

   -72.4644 -72.4634 -43.9274 -43.9264 -43.9237 -43.9227 -43.9227 -43.9217
   -21.1289 -20.9254 -20.7356 -20.1735 -19.8173 -19.4796 -19.3298 -19.1877
   -19.0274 -18.7921 -18.6533 -18.5579 -18.1611 -18.1036 -17.9355 -17.7372
   -12.3607 -12.1256 -12.0569 -11.9195 -11.6923 -11.6712 -11.5656 -10.9546
   -10.9029 -10.6366 -10.5361  -9.8727  -9.7061  -9.3489  -9.1235  -8.6807
    -8.6347  -8.5662  -8.4019  -8.3808  -8.1744  -8.1401  -8.0753  -8.0626
    -7.7004  -7.6359  -7.5066  -7.4868  -7.3708  -7.1836  -7.0803  -6.8744
    -6.6348  -6.4039  -6.1892  -6.1702  -5.9888  -5.9419  -5.7961  -5.7579
    -5.4642  -5.4144  -5.2212  -5.0564  -4.4573  -4.3634  -4.1039  -3.7805
    -2.2533  -1.6368  -1.4178  -1.4054  -1.3887  -1.3738  -1.3705  -1.3615
    -1.3458  -1.3413  -1.3169  -1.2673   0.6279   0.6541   1.0249   1.0416
     1.1728   1.2806   1.4135   1.7140   1.8252   1.9232

          k = 0.5000-0.0962 0.0000 ( 59291 PWs)   bands (ev):

   -72.4644 -72.4634 -43.9274 -43.9264 -43.9237 -43.9227 -43.9227 -43.9217
   -21.1265 -20.9320 -20.7313 -20.1720 -19.8174 -19.4810 -19.3352 -19.1832
   -19.0284 -18.7926 -18.6444 -18.5635 -18.1501 -18.1187 -17.9326 -17.7369
   -12.3594 -12.1261 -12.0553 -11.9229 -11.7035 -11.6584 -11.5673 -10.9554
   -10.9005 -10.6348 -10.5385  -9.8709  -9.7066  -9.3497  -9.1230  -8.6699
    -8.6352  -8.5638  -8.4165  -8.4030  -8.1723  -8.1182  -8.0869  -8.0523
    -7.6971  -7.6363  -7.5058  -7.4879  -7.3653  -7.1851  -7.0811  -6.8753
    -6.6353  -6.4083  -6.2105  -6.1697  -5.9721  -5.9414  -5.7955  -5.7614
    -5.4652  -5.4118  -5.1997  -5.0715  -4.4343  -4.3918  -4.0998  -3.7809
    -2.0561  -1.9073  -1.3970  -1.3850  -1.3796  -1.3724  -1.3697  -1.3627
    -1.3600  -1.3533  -1.3482  -1.3399   0.9480   1.0053   1.1151   1.1413
     1.2952   1.3379   1.4575   1.5154   1.5937   1.7233

          k =-0.3333-0.3849 0.0000 ( 59291 PWs)   bands (ev):

   -72.4644 -72.4634 -43.9274 -43.9264 -43.9237 -43.9227 -43.9227 -43.9217
   -21.1273 -20.9297 -20.7330 -20.1718 -19.8190 -19.4795 -19.3308 -19.1861
   -19.0309 -18.7911 -18.6457 -18.5628 -18.1522 -18.1161 -17.9328 -17.7371
   -12.3602 -12.1241 -12.0574 -11.9217 -11.6933 -11.6696 -11.5667 -10.9551
   -10.9006 -10.6343 -10.5390  -9.8713  -9.7066  -9.3496  -9.1237  -8.6732
    -8.6341  -8.5661  -8.4066  -8.3986  -8.1737  -8.1258  -8.0755  -8.0646
    -7.6974  -7.6349  -7.5117  -7.4825  -7.3648  -7.1851  -7.0815  -6.8809
    -6.6332  -6.4031  -6.1945  -6.1718  -5.9828  -5.9407  -5.7956  -5.7707
    -5.4650  -5.4070  -5.1998  -5.0719  -4.4369  -4.3897  -4.0992  -3.7808
    -2.1566  -1.7796  -1.4076  -1.3946  -1.3815  -1.3709  -1.3688  -1.3586
    -1.3564  -1.3503  -1.3315  -1.3286   0.8229   0.9990   1.0432   1.0905
     1.2200   1.2787   1.3947   1.4631   1.7121   1.8481

          k = 0.5000 0.0962 0.0000 ( 59291 PWs)   bands (ev):

   -72.4644 -72.4634 -43.9274 -43.9264 -43.9237 -43.9227 -43.9227 -43.9217
   -21.1265 -20.9320 -20.7313 -20.1720 -19.8174 -19.4810 -19.3352 -19.1832
   -19.0284 -18.7926 -18.6444 -18.5635 -18.1501 -18.1187 -17.9326 -17.7369
   -12.3594 -12.1261 -12.0553 -11.9229 -11.7035 -11.6584 -11.5673 -10.9553
   -10.9005 -10.6348 -10.5385  -9.8709  -9.7066  -9.3497  -9.1229  -8.6699
    -8.6352  -8.5638  -8.4165  -8.4030  -8.1723  -8.1182  -8.0869  -8.0522
    -7.6971  -7.6362  -7.5058  -7.4880  -7.3653  -7.1851  -7.0810  -6.8753
    -6.6352  -6.4083  -6.2105  -6.1696  -5.9721  -5.9413  -5.7955  -5.7614
    -5.4652  -5.4119  -5.1997  -5.0715  -4.4343  -4.3918  -4.0998  -3.7809
    -2.0561  -1.9073  -1.3970  -1.3850  -1.3796  -1.3723  -1.3697  -1.3628
    -1.3600  -1.3533  -1.3483  -1.3399   0.9480   1.0053   1.1151   1.1413
     1.2952   1.3379   1.4576   1.5155   1.5937   1.7234

          k =-0.3333 0.3849 0.0000 ( 59291 PWs)   bands (ev):

   -72.4644 -72.4634 -43.9274 -43.9264 -43.9237 -43.9227 -43.9227 -43.9217
   -21.1273 -20.9297 -20.7330 -20.1718 -19.8190 -19.4795 -19.3308 -19.1861
   -19.0309 -18.7911 -18.6456 -18.5628 -18.1522 -18.1161 -17.9328 -17.7371
   -12.3602 -12.1241 -12.0574 -11.9217 -11.6933 -11.6696 -11.5667 -10.9551
   -10.9006 -10.6343 -10.5390  -9.8713  -9.7066  -9.3495  -9.1237  -8.6732
    -8.6341  -8.5660  -8.4066  -8.3986  -8.1738  -8.1259  -8.0755  -8.0646
    -7.6973  -7.6349  -7.5117  -7.4825  -7.3648  -7.1851  -7.0816  -6.8809
    -6.6333  -6.4031  -6.1945  -6.1718  -5.9828  -5.9408  -5.7955  -5.7707
    -5.4649  -5.4070  -5.1998  -5.0719  -4.4369  -4.3897  -4.0992  -3.7808
    -2.1566  -1.7796  -1.4076  -1.3946  -1.3815  -1.3711  -1.3686  -1.3586
    -1.3564  -1.3503  -1.3315  -1.3286   0.8229   0.9990   1.0432   1.0905
     1.2200   1.2787   1.3947   1.4631   1.7121   1.8481

          k =-0.1667-0.0962 0.0000 ( 59226 PWs)   bands (ev):

   -72.4644 -72.4634 -43.9274 -43.9264 -43.9237 -43.9227 -43.9226 -43.9217
   -21.3260 -20.5480 -20.3568 -20.3539 -19.9996 -19.9949 -19.8192 -18.7401
   -18.7370 -18.3882 -18.3791 -18.3700 -18.2839 -18.2731 -18.0894 -18.0864
   -12.5225 -12.5124 -12.4206 -11.5922 -11.5902 -11.4412 -11.4307 -10.9379
   -10.9373  -9.9410  -9.9401  -9.6886  -9.3873  -9.3851  -9.2427  -9.2412
    -9.0548  -9.0532  -8.9368  -8.3358  -8.3349  -7.9136  -7.9111  -7.8965
    -7.8579  -7.7828  -7.6176  -7.6051  -7.1349  -7.1186  -6.9716  -6.9000
    -6.8984  -6.8658  -6.5427  -6.5417  -6.2701  -5.3513  -5.3432  -5.1558
    -5.0780  -4.8178  -4.8115  -4.7678  -4.6309  -4.6220  -4.3602  -4.3539
    -2.2725  -1.6220  -1.4217  -1.4064  -1.3927  -1.3797  -1.3628  -1.3575
    -1.3464  -1.3419  -1.3169  -1.2674   0.6628   0.9145   0.9732   1.2128
     1.2636   1.3477   1.4148   1.5250   1.5605   1.6869

          k =-0.0000-0.1925 0.0000 ( 59226 PWs)   bands (ev):

   -72.4644 -72.4634 -43.9274 -43.9264 -43.9237 -43.9227 -43.9226 -43.9217
   -21.3261 -20.5436 -20.3679 -20.3505 -20.0014 -19.9866 -19.8225 -18.7444
   -18.7293 -18.4025 -18.3882 -18.3646 -18.2689 -18.2687 -18.0972 -18.0834
   -12.5229 -12.5126 -12.4201 -11.5974 -11.5860 -11.4393 -11.4304 -10.9416
   -10.9350  -9.9410  -9.9401  -9.6888  -9.3866  -9.3845  -9.2427  -9.2418
    -9.0555  -9.0527  -8.9377  -8.3357  -8.3344  -7.9126  -7.9119  -7.8747
    -7.8561  -7.7842  -7.6719  -7.5859  -7.1413  -7.0846  -6.9703  -6.9029
    -6.8969  -6.8806  -6.5453  -6.5384  -6.2706  -5.3703  -5.3139  -5.1562
    -5.0777  -4.8393  -4.8309  -4.7660  -4.6075  -4.6064  -4.3844  -4.3396
    -2.3043  -1.5756  -1.4255  -1.4103  -1.3948  -1.3807  -1.3640  -1.3585
    -1.3427  -1.3386  -1.3118  -1.2194   0.4868   0.8548   0.9079   1.1790
     1.2527   1.3737   1.4548   1.5991   1.6116   1.6536

          k = 0.5000-0.8660 0.0000 ( 59292 PWs)   bands (ev):

   -72.4644 -72.4634 -43.9274 -43.9264 -43.9237 -43.9227 -43.9227 -43.9218
   -21.0635 -21.0583 -20.4806 -20.4790 -19.4375 -19.4339 -19.4260 -19.4238
   -19.0058 -19.0016 -18.3394 -18.3343 -18.3310 -18.3237 -17.8052 -17.8036
   -12.0847 -12.0798 -12.0756 -12.0703 -11.8889 -11.8870 -11.3428 -11.3396
   -10.2470 -10.2453 -10.1473 -10.1459 -10.1413 -10.1402  -8.5876  -8.5777
    -8.5598  -8.5571  -8.5564  -8.5531  -7.8754  -7.8740  -7.8729  -7.8722
    -7.8349  -7.8340  -7.7845  -7.7809  -7.5028  -7.4986  -6.6227  -6.6210
    -6.3667  -6.3579  -6.3136  -6.3090  -6.2030  -6.1999  -5.7215  -5.7158
    -5.5583  -5.5544  -4.7316  -4.7249  -4.7217  -4.7139  -3.8936  -3.8897
    -2.0556  -1.9079  -1.3970  -1.3847  -1.3767  -1.3727  -1.3716  -1.3628
    -1.3602  -1.3533  -1.3482  -1.3399   1.0258   1.0396   1.0743   1.1386
     1.3446   1.3778   1.4735   1.5509   1.6436   1.6645

          k =-1.0000 0.0000 0.0000 ( 59292 PWs)   bands (ev):

   -72.4644 -72.4634 -43.9274 -43.9264 -43.9237 -43.9227 -43.9227 -43.9217
   -21.0853 -21.0339 -20.4902 -20.4733 -19.4374 -19.4357 -19.4309 -19.4117
   -19.0248 -18.9845 -18.3784 -18.3497 -18.3054 -18.2953 -17.8121 -17.7984
   -12.1135 -12.0917 -12.0531 -12.0492 -11.8949 -11.8813 -11.3610 -11.3226
   -10.2532 -10.2529 -10.1462 -10.1445 -10.1364 -10.1353  -8.6445  -8.5833
    -8.5699  -8.5402  -8.5313  -8.5065  -7.8881  -7.8811  -7.8749  -7.8710
    -7.8420  -7.8262  -7.8123  -7.7530  -7.5238  -7.4795  -6.6258  -6.6158
    -6.3911  -6.3326  -6.3185  -6.2826  -6.2195  -6.1867  -5.7527  -5.6950
    -5.5771  -5.5357  -4.7941  -4.7769  -4.6645  -4.6594  -3.9100  -3.8753
    -2.2872  -1.5871  -1.4210  -1.4095  -1.3920  -1.3749  -1.3705  -1.3627
    -1.3420  -1.3376  -1.3117  -1.2195   0.4580   0.5936   1.0505   1.0545
     1.1218   1.5396   1.5841   1.6004   1.6261   1.8173

 ------ SPIN DOWN ----------


          k = 0.1667 0.2887 0.0000 ( 59267 PWs)   bands (ev):

   -68.0926 -68.0914 -39.6015 -39.6004 -39.5828 -39.5816 -39.5796 -39.5785
   -21.2519 -20.6659 -20.6614 -20.1102 -20.1016 -19.5931 -19.5888 -19.1049
   -18.7011 -18.6966 -18.4636 -18.4559 -18.1985 -18.0909 -18.0862 -17.8553
   -12.4915 -12.2150 -12.2075 -11.8284 -11.8261 -11.6663 -11.1995 -11.1963
   -10.3991 -10.3750 -10.1248 -10.1224  -9.5967  -9.5954  -8.8340  -8.8291
    -8.8216  -8.7737  -8.7697  -8.6043  -8.2051  -8.0282  -8.0183  -7.8367
    -7.8347  -7.4451  -7.4440  -7.2770  -7.2433  -7.2160  -7.2142  -6.9694
    -6.9623  -6.5481  -6.5404  -6.1612  -6.1605  -5.8622  -5.4257  -5.2765
    -5.2690  -5.2078  -4.9084  -4.8913  -4.4947  -4.3484  -4.3408  -3.9727
    -0.2276   0.6430   1.0508   1.2013   1.3610   1.4217   1.4497   1.5341
     1.5632   1.8224   1.8813   2.1128   2.2041   2.2771   2.2989   2.4037
     2.4274   2.4900   2.5150   2.6054   2.6319   2.6590

          k = 0.1667-0.4811 0.0000 ( 59291 PWs)   bands (ev):

   -68.0926 -68.0914 -39.6015 -39.6004 -39.5828 -39.5816 -39.5796 -39.5785
   -21.1206 -20.9191 -20.7280 -20.1658 -19.8100 -19.4721 -19.3226 -19.1799
   -19.0200 -18.7848 -18.6432 -18.5520 -18.1501 -18.0996 -17.9276 -17.7294
   -12.3554 -12.1204 -12.0522 -11.9148 -11.6883 -11.6659 -11.5606 -10.9493
   -10.8970 -10.6305 -10.5314  -9.8668  -9.7011  -9.3433  -9.1184  -8.6481
    -8.6298  -8.5602  -8.3972  -8.3639  -8.1693  -8.1124  -8.0705  -8.0581
    -7.6951  -7.6310  -7.5016  -7.4826  -7.3442  -7.1783  -7.0756  -6.8513
    -6.6288  -6.3807  -6.1681  -6.1647  -5.9642  -5.9360  -5.7910  -5.7366
    -5.4593  -5.3906  -5.1891  -5.0419  -4.4260  -4.3533  -4.0824  -3.7606
    -0.1858   0.6085   1.0158   1.1015   1.1702   1.2983   1.3443   1.7702
     1.8513   1.8774   2.0486   2.1091   2.2522   2.2866   2.2993   2.3559
     2.4524   2.4731   2.5163   2.5253   2.5464   2.6483

          k = 0.1667-0.0962 0.0000 ( 59226 PWs)   bands (ev):

   -68.0926 -68.0914 -39.6015 -39.6003 -39.5828 -39.5816 -39.5796 -39.5785
   -21.3185 -20.5396 -20.3497 -20.3475 -19.9912 -19.9877 -19.8129 -18.7314
   -18.7290 -18.3794 -18.3723 -18.3619 -18.2748 -18.2665 -18.0823 -18.0802
   -12.5162 -12.5083 -12.4156 -11.5874 -11.5857 -11.4350 -11.4266 -10.9327
   -10.9322  -9.9357  -9.9348  -9.6829  -9.3819  -9.3801  -9.2369  -9.2357
    -9.0496  -9.0485  -8.9103  -8.3298  -8.3291  -7.9086  -7.9067  -7.8650
    -7.8495  -7.7783  -7.5938  -7.5871  -7.1054  -7.0958  -6.9665  -6.8952
    -6.8941  -6.8495  -6.5378  -6.5370  -6.2653  -5.3239  -5.3189  -5.1506
    -5.0727  -4.7949  -4.7891  -4.7458  -4.6079  -4.6007  -4.3398  -4.3359
    -0.2656   0.6787   1.0435   1.1397   1.2534   1.4698   1.5033   1.5694
     1.8354   1.9186   1.9974   2.0269   2.0701   2.1266   2.3030   2.4047
     2.4250   2.4576   2.4943   2.5606   2.6450   2.6636

          k =-0.5000-0.8660 0.0000 ( 59292 PWs)   bands (ev):

   -68.0926 -68.0914 -39.6015 -39.6003 -39.5828 -39.5816 -39.5796 -39.5785
   -21.0555 -21.0509 -20.4735 -20.4720 -19.4283 -19.4252 -19.4193 -19.4173
   -18.9982 -18.9947 -18.3303 -18.3257 -18.3238 -18.3175 -17.7976 -17.7961
   -12.0784 -12.0738 -12.0711 -12.0664 -11.8845 -11.8827 -11.3375 -11.3345
   -10.2414 -10.2400 -10.1411 -10.1398 -10.1365 -10.1354  -8.5585  -8.5562
    -8.5545  -8.5514  -8.5485  -8.5467  -7.8698  -7.8690  -7.8682  -7.8676
    -7.8290  -7.8281  -7.7622  -7.7593  -7.4982  -7.4943  -6.6175  -6.6160
    -6.3299  -6.3241  -6.2977  -6.2942  -6.1976  -6.1948  -5.6999  -5.6955
    -5.5530  -5.5495  -4.7082  -4.7022  -4.7002  -4.6936  -3.8730  -3.8700
     0.0358   0.1601   1.0401   1.0475   1.4534   1.4653   1.5199   1.5437
     1.7745   1.7795   2.0648   2.0726   2.2208   2.2520   2.3860   2.3934
     2.4408   2.4525   2.5056   2.5146   2.6067   2.6491

          k =-0.1667 0.2887 0.0000 ( 59267 PWs)   bands (ev):

   -68.0926 -68.0914 -39.6015 -39.6004 -39.5828 -39.5816 -39.5796 -39.5785
   -21.2519 -20.6659 -20.6614 -20.1102 -20.1016 -19.5931 -19.5888 -19.1049
   -18.7011 -18.6966 -18.4636 -18.4559 -18.1985 -18.0910 -18.0862 -17.8553
   -12.4915 -12.2150 -12.2075 -11.8284 -11.8261 -11.6664 -11.1995 -11.1963
   -10.3991 -10.3750 -10.1248 -10.1224  -9.5967  -9.5954  -8.8340  -8.8291
    -8.8216  -8.7738  -8.7698  -8.6043  -8.2052  -8.0282  -8.0183  -7.8367
    -7.8346  -7.4452  -7.4440  -7.2770  -7.2433  -7.2160  -7.2142  -6.9695
    -6.9623  -6.5481  -6.5404  -6.1613  -6.1605  -5.8622  -5.4258  -5.2765
    -5.2690  -5.2077  -4.9084  -4.8912  -4.4947  -4.3484  -4.3408  -3.9727
    -0.2276   0.6430   1.0508   1.2013   1.3610   1.4217   1.4497   1.5341
     1.5632   1.8224   1.8813   2.1128   2.2042   2.2770   2.2989   2.4037
     2.4274   2.4902   2.5149   2.6052   2.6318   2.6589

          k = 0.3333 0.0000 0.0000 ( 59267 PWs)   bands (ev):

   -68.0926 -68.0914 -39.6015 -39.6004 -39.5828 -39.5816 -39.5796 -39.5785
   -21.2517 -20.6850 -20.6422 -20.1091 -20.1018 -19.6123 -19.5707 -19.1061
   -18.7137 -18.6812 -18.4638 -18.4567 -18.1958 -18.1076 -18.0733 -17.8548
   -12.4911 -12.2151 -12.2075 -11.8355 -11.8206 -11.6651 -11.2135 -11.1824
   -10.3985 -10.3749 -10.1350 -10.1127  -9.6016  -9.5897  -8.8382  -8.8299
    -8.8147  -8.7912  -8.7535  -8.6047  -8.2062  -8.0715  -7.9749  -7.8358
    -7.8343  -7.4500  -7.4388  -7.2748  -7.2433  -7.2235  -7.2066  -6.9697
    -6.9630  -6.5895  -6.5025  -6.1635  -6.1577  -5.8649  -5.4256  -5.2909
    -5.2505  -5.2080  -4.9070  -4.8937  -4.4902  -4.3670  -4.3277  -3.9724
    -0.1502   0.4096   1.0498   1.1978   1.3571   1.4863   1.4926   1.5225
     1.5917   1.8354   2.1011   2.1568   2.2190   2.2486   2.2813   2.4043
     2.4498   2.4722   2.5460   2.5596   2.6009   2.6273

          k =-0.1667-0.4811 0.0000 ( 59291 PWs)   bands (ev):

   -68.0926 -68.0914 -39.6015 -39.6004 -39.5828 -39.5816 -39.5796 -39.5785
   -21.1206 -20.9191 -20.7280 -20.1658 -19.8100 -19.4721 -19.3226 -19.1799
   -19.0200 -18.7848 -18.6432 -18.5520 -18.1501 -18.0996 -17.9276 -17.7294
   -12.3554 -12.1204 -12.0522 -11.9147 -11.6883 -11.6659 -11.5607 -10.9493
   -10.8970 -10.6305 -10.5314  -9.8667  -9.7011  -9.3434  -9.1184  -8.6481
    -8.6297  -8.5602  -8.3972  -8.3638  -8.1692  -8.1124  -8.0706  -8.0581
    -7.6951  -7.6311  -7.5015  -7.4826  -7.3442  -7.1782  -7.0756  -6.8513
    -6.6289  -6.3807  -6.1681  -6.1647  -5.9642  -5.9360  -5.7910  -5.7365
    -5.4594  -5.3905  -5.1890  -5.0420  -4.4260  -4.3533  -4.0824  -3.7606
    -0.1858   0.6085   1.0158   1.1014   1.1701   1.2983   1.3443   1.7702
     1.8513   1.8774   2.0486   2.1091   2.2522   2.2866   2.2993   2.3559
     2.4524   2.4730   2.5162   2.5253   2.5463   2.6481

          k = 0.5000-0.0962 0.0000 ( 59291 PWs)   bands (ev):

   -68.0926 -68.0914 -39.6015 -39.6004 -39.5828 -39.5816 -39.5796 -39.5785
   -21.1189 -20.9237 -20.7250 -20.1648 -19.8101 -19.4731 -19.3262 -19.1769
   -19.0206 -18.7851 -18.6372 -18.5558 -18.1423 -18.1100 -17.9258 -17.7292
   -12.3545 -12.1207 -12.0509 -11.9174 -11.6974 -11.6554 -11.5620 -10.9498
   -10.8953 -10.6292 -10.5332  -9.8654  -9.7014  -9.3440  -9.1181  -8.6425
    -8.6299  -8.5586  -8.4003  -8.3810  -8.1678  -8.1009  -8.0801  -8.0494
    -7.6926  -7.6314  -7.5009  -7.4835  -7.3411  -7.1792  -7.0761  -6.8517
    -6.6291  -6.3832  -6.1781  -6.1650  -5.9555  -5.9358  -5.7905  -5.7381
    -5.4601  -5.3897  -5.1776  -5.0499  -4.4128  -4.3693  -4.0804  -3.7607
     0.0267   0.1729   1.0012   1.1116   1.1661   1.3038   1.6303   1.7556
     1.7911   2.0392   2.0511   2.1594   2.2213   2.2923   2.3080   2.3813
     2.4313   2.4892   2.5221   2.5395   2.6100   2.6389

          k =-0.3333-0.3849 0.0000 ( 59291 PWs)   bands (ev):

   -68.0926 -68.0914 -39.6015 -39.6004 -39.5828 -39.5816 -39.5796 -39.5785
   -21.1195 -20.9221 -20.7262 -20.1647 -19.8112 -19.4721 -19.3232 -19.1789
   -19.0224 -18.7841 -18.6380 -18.5554 -18.1437 -18.1084 -17.9259 -17.7293
   -12.3551 -12.1192 -12.0526 -11.9165 -11.6891 -11.6646 -11.5615 -10.9496
   -10.8954 -10.6288 -10.5335  -9.8657  -9.7015  -9.3438  -9.1186  -8.6440
    -8.6292  -8.5601  -8.3983  -8.3749  -8.1689  -8.1051  -8.0706  -8.0596
    -7.6929  -7.6303  -7.5056  -7.4792  -7.3408  -7.1792  -7.0765  -6.8548
    -6.6278  -6.3804  -6.1701  -6.1660  -5.9612  -5.9351  -5.7907  -5.7429
    -5.4600  -5.3873  -5.1778  -5.0500  -4.4141  -4.3681  -4.0801  -3.7607
    -0.0861   0.3464   1.0161   1.0675   1.2075   1.2951   1.5043   1.7711
     1.9377   1.9687   2.0537   2.0633   2.1930   2.2940   2.3289   2.4230
     2.4343   2.4531   2.4954   2.5603   2.5787   2.6471

          k = 0.5000 0.0962 0.0000 ( 59291 PWs)   bands (ev):

   -68.0926 -68.0914 -39.6015 -39.6004 -39.5828 -39.5816 -39.5796 -39.5785
   -21.1189 -20.9237 -20.7250 -20.1648 -19.8101 -19.4731 -19.3262 -19.1769
   -19.0206 -18.7851 -18.6372 -18.5558 -18.1423 -18.1101 -17.9258 -17.7292
   -12.3545 -12.1208 -12.0509 -11.9174 -11.6974 -11.6554 -11.5620 -10.9498
   -10.8953 -10.6292 -10.5332  -9.8654  -9.7015  -9.3439  -9.1180  -8.6425
    -8.6299  -8.5586  -8.4003  -8.3810  -8.1679  -8.1009  -8.0801  -8.0494
    -7.6926  -7.6314  -7.5009  -7.4836  -7.3411  -7.1793  -7.0761  -6.8517
    -6.6291  -6.3832  -6.1781  -6.1649  -5.9555  -5.9358  -5.7906  -5.7381
    -5.4601  -5.3897  -5.1776  -5.0499  -4.4128  -4.3692  -4.0804  -3.7607
     0.0267   0.1729   1.0012   1.1116   1.1661   1.3038   1.6303   1.7556
     1.7911   2.0392   2.0511   2.1594   2.2212   2.2923   2.3080   2.3814
     2.4312   2.4893   2.5220   2.5395   2.6094   2.6400

          k =-0.3333 0.3849 0.0000 ( 59291 PWs)   bands (ev):

   -68.0926 -68.0914 -39.6015 -39.6004 -39.5828 -39.5816 -39.5796 -39.5785
   -21.1195 -20.9221 -20.7262 -20.1647 -19.8112 -19.4721 -19.3232 -19.1789
   -19.0224 -18.7841 -18.6380 -18.5554 -18.1437 -18.1084 -17.9259 -17.7293
   -12.3551 -12.1192 -12.0526 -11.9165 -11.6891 -11.6646 -11.5615 -10.9496
   -10.8953 -10.6288 -10.5335  -9.8657  -9.7015  -9.3438  -9.1186  -8.6440
    -8.6293  -8.5600  -8.3983  -8.3749  -8.1690  -8.1051  -8.0706  -8.0596
    -7.6928  -7.6303  -7.5056  -7.4791  -7.3408  -7.1792  -7.0765  -6.8548
    -6.6278  -6.3804  -6.1701  -6.1660  -5.9612  -5.9352  -5.7906  -5.7429
    -5.4599  -5.3873  -5.1778  -5.0500  -4.4141  -4.3681  -4.0801  -3.7607
    -0.0861   0.3464   1.0161   1.0675   1.2075   1.2951   1.5043   1.7711
     1.9376   1.9687   2.0537   2.0633   2.1931   2.2940   2.3289   2.4229
     2.4343   2.4530   2.4954   2.5603   2.5779   2.6402

          k =-0.1667-0.0962 0.0000 ( 59226 PWs)   bands (ev):

   -68.0926 -68.0914 -39.6015 -39.6003 -39.5828 -39.5816 -39.5796 -39.5785
   -21.3185 -20.5396 -20.3497 -20.3475 -19.9912 -19.9877 -19.8129 -18.7314
   -18.7290 -18.3794 -18.3723 -18.3619 -18.2748 -18.2665 -18.0823 -18.0802
   -12.5162 -12.5083 -12.4155 -11.5874 -11.5857 -11.4350 -11.4266 -10.9327
   -10.9322  -9.9357  -9.9348  -9.6829  -9.3819  -9.3800  -9.2368  -9.2358
    -9.0495  -9.0485  -8.9103  -8.3299  -8.3291  -7.9086  -7.9067  -7.8650
    -7.8495  -7.7784  -7.5938  -7.5871  -7.1054  -7.0958  -6.9666  -6.8952
    -6.8940  -6.8496  -6.5378  -6.5370  -6.2653  -5.3239  -5.3189  -5.1505
    -5.0728  -4.7949  -4.7891  -4.7459  -4.6079  -4.6007  -4.3398  -4.3359
    -0.2656   0.6787   1.0435   1.1397   1.2534   1.4698   1.5033   1.5694
     1.8354   1.9186   1.9974   2.0269   2.0701   2.1266   2.3031   2.4047
     2.4250   2.4575   2.4943   2.5606   2.6454   2.6641

          k =-0.0000-0.1925 0.0000 ( 59226 PWs)   bands (ev):

   -68.0926 -68.0914 -39.6015 -39.6003 -39.5827 -39.5816 -39.5796 -39.5785
   -21.3186 -20.5365 -20.3583 -20.3442 -19.9933 -19.9810 -19.8151 -18.7351
   -18.7231 -18.3890 -18.3782 -18.3586 -18.2642 -18.2639 -18.0882 -18.0773
   -12.5164 -12.5085 -12.4151 -11.5917 -11.5822 -11.4335 -11.4264 -10.9356
   -10.9305  -9.9357  -9.9348  -9.6831  -9.3813  -9.3796  -9.2366  -9.2365
    -9.0504  -9.0479  -8.9107  -8.3302  -8.3283  -7.9079  -7.9071  -7.8579
    -7.8445  -7.7794  -7.6260  -7.5733  -7.1127  -7.0739  -6.9656  -6.8977
    -6.8926  -6.8572  -6.5400  -6.5344  -6.2657  -5.3370  -5.3010  -5.1508
    -5.0726  -4.8061  -4.7985  -4.7449  -4.5954  -4.5935  -4.3545  -4.3261
    -0.2910   0.8160   1.0381   1.1516   1.2514   1.4408   1.4744   1.5843
     1.7547   1.8574   1.8970   1.9927   2.0230   2.2232   2.3421   2.3636
     2.4065   2.4777   2.5309   2.6490   2.6526   2.6583

          k = 0.5000-0.8660 0.0000 ( 59292 PWs)   bands (ev):

   -68.0926 -68.0914 -39.6015 -39.6003 -39.5828 -39.5816 -39.5796 -39.5785
   -21.0555 -21.0509 -20.4735 -20.4720 -19.4283 -19.4252 -19.4193 -19.4173
   -18.9983 -18.9947 -18.3303 -18.3258 -18.3239 -18.3175 -17.7976 -17.7961
   -12.0783 -12.0738 -12.0712 -12.0663 -11.8844 -11.8827 -11.3375 -11.3344
   -10.2415 -10.2400 -10.1411 -10.1398 -10.1365 -10.1354  -8.5585  -8.5562
    -8.5544  -8.5514  -8.5484  -8.5467  -7.8698  -7.8690  -7.8681  -7.8676
    -7.8291  -7.8282  -7.7622  -7.7593  -7.4982  -7.4944  -6.6174  -6.6159
    -6.3299  -6.3241  -6.2977  -6.2942  -6.1976  -6.1947  -5.6999  -5.6955
    -5.5531  -5.5496  -4.7081  -4.7022  -4.7002  -4.6935  -3.8730  -3.8700
     0.0358   0.1601   1.0401   1.0475   1.4534   1.4653   1.5199   1.5437
     1.7745   1.7795   2.0649   2.0725   2.2208   2.2520   2.3860   2.3933
     2.4415   2.4523   2.5058   2.5144   2.6064   2.6503

          k =-1.0000 0.0000 0.0000 ( 59292 PWs)   bands (ev):

   -68.0926 -68.0914 -39.6015 -39.6003 -39.5828 -39.5816 -39.5796 -39.5785
   -21.0739 -21.0308 -20.4811 -20.4673 -19.4288 -19.4268 -19.4226 -19.4082
   -19.0131 -18.9811 -18.3616 -18.3386 -18.3033 -18.2941 -17.8027 -17.7921
   -12.1032 -12.0859 -12.0506 -12.0476 -11.8895 -11.8779 -11.3535 -11.3195
   -10.2462 -10.2456 -10.1406 -10.1395 -10.1320 -10.1316  -8.5999  -8.5750
    -8.5638  -8.5377  -8.5297  -8.5008  -7.8802  -7.8744  -7.8677  -7.8661
    -7.8245  -7.8228  -7.7869  -7.7411  -7.5163  -7.4776  -6.6198  -6.6121
    -6.3462  -6.3112  -6.3011  -6.2762  -6.2116  -6.1829  -5.7204  -5.6796
    -5.5690  -5.5337  -4.7518  -4.7370  -4.6605  -4.6562  -3.8834  -3.8607
    -0.2191   0.7507   1.0390   1.1212   1.2544   1.3091   1.5055   1.5928
     1.6237   1.6726   1.8901   2.1515   2.1938   2.2997   2.3246   2.3927
     2.4081   2.5032   2.5512   2.5798   2.6371   2.6533

     the Fermi energy is    -0.8575 ev

!    total energy              =   -1133.81110117 Ry

     total all-electron energy =     -6753.486804 Ry
     estimated scf accuracy    <       0.00000006 Ry
     smearing contrib. (-TS)   =      -0.00000000 Ry
     internal energy E=F+TS    =   -1133.81110117 Ry

     The total energy is F=E-TS. E is the sum of the following terms:
     one-electron contribution =   -3914.32165998 Ry
     hartree contribution      =    1985.81270442 Ry
     xc contribution           =    -186.20513180 Ry
     ewald contribution        =    1340.26901072 Ry
     DFT-D3 Dispersion         =      -0.13822238 Ry
     one-center paw contrib.   =    -359.22780214 Ry

     total magnetization       =    12.00 Bohr mag/cell
     absolute magnetization    =    12.00 Bohr mag/cell

     convergence has been achieved in  12 iterations

     Writing output data file ./mytmp/Crdimer0.26-0.5.save/
 
     init_run     :     18.66s CPU     19.84s WALL (       1 calls)
     electrons    :    482.32s CPU    521.09s WALL (       1 calls)

     Called by init_run:
     wfcinit      :     13.66s CPU     14.29s WALL (       1 calls)
     potinit      :      1.45s CPU      1.56s WALL (       1 calls)
     hinit0       :      1.51s CPU      1.61s WALL (       1 calls)

     Called by electrons:
     c_bands      :    384.97s CPU    406.81s WALL (      12 calls)
     sum_band     :     69.03s CPU     78.93s WALL (      12 calls)
     v_of_rho     :      6.51s CPU      7.15s WALL (      13 calls)
     newd         :     15.34s CPU     21.78s WALL (      13 calls)
     PAW_pot      :      6.31s CPU      6.39s WALL (      13 calls)
     mix_rho      :      0.80s CPU      0.90s WALL (      12 calls)

     Called by c_bands:
     init_us_2    :      4.35s CPU      4.38s WALL (     750 calls)
     cegterg      :    374.37s CPU    396.15s WALL (     360 calls)

     Called by *egterg:
     cdiaghg      :     23.26s CPU     36.22s WALL (    2483 calls)
     h_psi        :    226.53s CPU    234.36s WALL (    2513 calls)
     s_psi        :     24.92s CPU     24.97s WALL (    2513 calls)
     g_psi        :      0.67s CPU      0.68s WALL (    2123 calls)

     Called by h_psi:
     h_psi:calbec :     26.77s CPU     27.30s WALL (    2513 calls)
     vloc_psi     :    171.88s CPU    179.04s WALL (    2513 calls)
     add_vuspsi   :     25.76s CPU     25.87s WALL (    2513 calls)

     General routines
     calbec       :     34.98s CPU     35.72s WALL (    2873 calls)
     fft          :      8.24s CPU     12.08s WALL (     319 calls)
     ffts         :      0.10s CPU      0.10s WALL (      50 calls)
     fftw         :    174.49s CPU    181.78s WALL (  229538 calls)
     interpolate  :      0.36s CPU      0.38s WALL (      26 calls)
 
     Parallel routines
     fft_scatt_xy :     28.03s CPU     29.01s WALL (  229907 calls)
     fft_scatt_yz :     72.10s CPU     79.28s WALL (  229907 calls)
 
     PWSCF        :   8m23.03s CPU   9m 5.63s WALL

 
   This run was terminated on:  23:26:26  29Mar2021            

=------------------------------------------------------------------------------=
   JOB DONE.
=------------------------------------------------------------------------------=
