
     Program PWSCF v.6.7MaX starts on 30Mar2021 at  0:48: 4 

     This program is part of the open-source Quantum ESPRESSO suite
     for quantum simulation of materials; please cite
         "P. Giannozzi et al., J. Phys.:Condens. Matter 21 395502 (2009);
         "P. Giannozzi et al., J. Phys.:Condens. Matter 29 465901 (2017);
          URL http://www.quantum-espresso.org", 
     in publications or presentations arising from this work. More details at
     http://www.quantum-espresso.org/quote

     Parallel version (MPI), running on    48 processors

     MPI processes distributed on     1 nodes
     R & G space division:  proc/nbgrp/npool/nimage =      48
     Reading input from Crdimer0.3-0.3.scf.in

     Current dimensions of program PWSCF are:
     Max number of different atomic species (ntypx) = 10
     Max number of k-points (npk) =  40000
     Max angular momentum in pseudopotentials (lmaxx) =  3
     file N.pbe-n-kjpaw_psl.1.0.0.UPF: wavefunction(s)  2S renormalized
     file Cr.pbe-spn-kjpaw_psl.1.0.0.UPF: wavefunction(s)  3S 3P 3D renormalized
     file Cr.pbe-spn-kjpaw_psl.1.0.0.UPF: wavefunction(s)  3S 3P 3D renormalized

     --------------------------------------------
     Parameters for DFT-D3 Dispersion Correction:
     --------------------------------------------
       Reference C6 values for interpolation: 

         atom   Coordination number   C6
         B          0.000           214.36
         B          0.971           150.74
         B          1.944           106.23
         B          2.913            62.89
         B          4.586            56.06
         N          0.000            50.54
         N          0.994            44.25
         N          2.014            39.35
         N          2.990            31.16
         Cr1        0.000          1381.48
         Cr1        1.827           571.38
         Cr1       10.619           306.69
         Cr2        0.000          1381.48
         Cr2        1.827           571.38
         Cr2       10.619           306.69

       Values used:

         atom   Coordination number  R0_AB[au]  C6      C8
         B          3.366            3.039     62.87   2505.17
         B          3.335            3.039     62.89   2506.01
         B          3.336            3.039     62.89   2506.00
         B          3.337            3.039     62.89   2505.98
         B          3.344            3.039     62.89   2505.80
         B          3.335            3.039     62.89   2506.00
         N          3.142            2.478     31.21    688.62
         N          3.135            2.478     31.22    688.69
         N          3.136            2.478     31.22    688.68
         N          3.138            2.478     31.22    688.66
         N          3.136            2.478     31.22    688.68
         N          3.136            2.478     31.22    688.68
         N          3.160            2.478     31.21    688.47
         N          3.134            2.478     31.22    688.70
         N          3.134            2.478     31.22    688.70
         B          3.343            3.039     62.89   2505.80
         B          3.335            3.039     62.89   2506.01
         B          3.335            3.039     62.89   2506.00
         B          3.344            3.039     62.89   2505.80
         B          3.366            3.039     62.87   2505.17
         B          3.343            3.039     62.89   2505.80
         N          3.160            2.478     31.21    688.47
         B          3.339            3.039     62.89   2505.91
         B          3.336            3.039     62.89   2505.98
         B          3.337            3.039     62.89   2505.96
         N          3.136            2.478     31.22    688.68
         N          3.135            2.478     31.22    688.69
         N          3.134            2.478     31.22    688.70
         N          3.134            2.478     31.22    688.70
         N          3.136            2.478     31.22    688.68
         N          3.138            2.478     31.22    688.66
         B          3.337            3.039     62.89   2505.96
         Cr1        0.113            3.252   1381.48 127494.64
         Cr2        0.113            3.252   1381.48 127494.64

         Molecular C6 ( Ry / a.u.^6 ) =     79164.58


     Subspace diagonalization in iterative solution of the eigenvalue problem:
     one sub-group per band group will be used
     scalapack distributed-memory algorithm (size of sub-group:  6*  6 procs)

 
     Parallelization info
     --------------------
     sticks:   dense  smooth     PW     G-vecs:    dense   smooth      PW
     Min         235      98     26                36277     9874    1408
     Max         236      99     27                36282     9883    1425
     Sum       11311    4741   1285              1741401   474235   68095
 


     bravais-lattice index     =            4
     lattice parameter (alat)  =      18.9275  a.u.
     unit-cell volume          =   10553.3021 (a.u.)^3
     number of atoms/cell      =           34
     number of atomic types    =            4
     number of electrons       =       156.00
     number of Kohn-Sham states=           94
     kinetic-energy cutoff     =      48.0000  Ry
     charge density cutoff     =     457.0000  Ry
     scf convergence threshold =      1.0E-07
     mixing beta               =       0.5000
     number of iterations used =            8  plain     mixing
     Exchange-correlation= SLA  PW   PBX  PBC
                           (   1   4   3   4   0   0   0)

     celldm(1)=  18.927497  celldm(2)=   0.000000  celldm(3)=   1.797125
     celldm(4)=   0.000000  celldm(5)=   0.000000  celldm(6)=   0.000000

     crystal axes: (cart. coord. in units of alat)
               a(1) = (   1.000000   0.000000   0.000000 )  
               a(2) = (  -0.500000   0.866025   0.000000 )  
               a(3) = (   0.000000   0.000000   1.797125 )  

     reciprocal axes: (cart. coord. in units 2 pi/alat)
               b(1) = (  1.000000  0.577350  0.000000 )  
               b(2) = (  0.000000  1.154701  0.000000 )  
               b(3) = (  0.000000  0.000000  0.556444 )  


     PseudoPot. # 1 for B  read from file:
     /home/sf05/q-e-qe-6.7MaX-Release/pseudo/B.pbe-n-kjpaw_psl.1.0.0.UPF
     MD5 check sum: d9c678ba5d3b2fd7b74e61139c9288d8
     Pseudo is Projector augmented-wave + core cor, Zval =  3.0
     Generated using "atomic" code by A. Dal Corso  v.5.1.2
     Shape of augmentation charge: PSQ
     Using radial grid of 1059 points,  4 beta functions with: 
                l(1) =   0
                l(2) =   0
                l(3) =   1
                l(4) =   1
     Q(r) pseudized with 0 coefficients 


     PseudoPot. # 2 for N  read from file:
     /home/sf05/q-e-qe-6.7MaX-Release/pseudo/N.pbe-n-kjpaw_psl.1.0.0.UPF
     MD5 check sum: e0e4e94a9c4025c5b51bd7d8793849bd
     Pseudo is Projector augmented-wave + core cor, Zval =  5.0
     Generated using "atomic" code by A. Dal Corso  v.5.1.2
     Shape of augmentation charge: PSQ
     Using radial grid of 1085 points,  4 beta functions with: 
                l(1) =   0
                l(2) =   0
                l(3) =   1
                l(4) =   1
     Q(r) pseudized with 0 coefficients 


     PseudoPot. # 3 for Cr read from file:
     /home/sf05/q-e-qe-6.7MaX-Release/pseudo/Cr.pbe-spn-kjpaw_psl.1.0.0.UPF
     MD5 check sum: 198f1a2427a48552563eee314eba32ba
     Pseudo is Projector augmented-wave + core cor, Zval = 14.0
     Generated using &quot;atomic&quot; code by A. Dal Corso  v.6.3
     Shape of augmentation charge: PSQ
     Using radial grid of 1183 points,  6 beta functions with: 
                l(1) =   0
                l(2) =   0
                l(3) =   1
                l(4) =   1
                l(5) =   2
                l(6) =   2
     Q(r) pseudized with 0 coefficients 


     PseudoPot. # 4 for Cr read from file:
     /home/sf05/q-e-qe-6.7MaX-Release/pseudo/Cr.pbe-spn-kjpaw_psl.1.0.0.UPF
     MD5 check sum: 198f1a2427a48552563eee314eba32ba
     Pseudo is Projector augmented-wave + core cor, Zval = 14.0
     Generated using &quot;atomic&quot; code by A. Dal Corso  v.6.3
     Shape of augmentation charge: PSQ
     Using radial grid of 1183 points,  6 beta functions with: 
                l(1) =   0
                l(2) =   0
                l(3) =   1
                l(4) =   1
                l(5) =   2
                l(6) =   2
     Q(r) pseudized with 0 coefficients 


     atomic species   valence    mass     pseudopotential
        B              3.00    10.81100     B ( 1.00)
        N              5.00    14.00674     N ( 1.00)
        Cr1           14.00    51.99610     Cr( 1.00)
        Cr2           14.00    51.99610     Cr( 1.00)

     Starting magnetic structure 
     atomic species   magnetization
        B            0.000
        N            0.000
        Cr1          1.000
        Cr2          1.000

     No symmetry found



   Cartesian axes

     site n.     atom                  positions (alat units)
         1           B   tau(   1) = (  -0.1250000   0.2165064   0.8985623  )
         2           B   tau(   2) = (   0.3750000   0.6495191   0.8985623  )
         3           B   tau(   3) = (   0.2500000   0.0000000   0.8985623  )
         4           B   tau(   4) = (   0.7500000   0.0000000   0.8985623  )
         5           B   tau(   5) = (   0.1250000   0.2165064   0.8985623  )
         6           B   tau(   6) = (  -0.3750000   0.6495191   0.8985623  )
         7           N   tau(   7) = (   0.7500005   0.2886748   0.8985623  )
         8           N   tau(   8) = (   0.3750005   0.5051812   0.8985623  )
         9           N   tau(   9) = (   0.3750005   0.0721685   0.8985623  )
        10           N   tau(  10) = (   0.6250005   0.0721685   0.8985623  )
        11           N   tau(  11) = (   0.2500005   0.2886748   0.8985623  )
        12           N   tau(  12) = (   0.6250005   0.5051812   0.8985623  )
        13           N   tau(  13) = (   0.0000005   0.2886748   0.8985623  )
        14           N   tau(  14) = (   0.2500005   0.7216875   0.8985623  )
        15           N   tau(  15) = (  -0.2499995   0.7216875   0.8985623  )
        16           B   tau(  16) = (   0.0000000   0.4330127   0.8985623  )
        17           B   tau(  17) = (   0.1250000   0.6495191   0.8985623  )
        18           B   tau(  18) = (  -0.1250000   0.6495191   0.8985623  )
        19           B   tau(  19) = (   0.3750000   0.2165064   0.8985623  )
        20           B   tau(  20) = (   0.6250000   0.2165064   0.8985623  )
        21           B   tau(  21) = (   0.5000000   0.4330127   0.8985623  )
        22           N   tau(  22) = (   0.5000005   0.2886748   0.8985623  )
        23           B   tau(  23) = (  -0.2500000   0.4330127   0.8985623  )
        24           B   tau(  24) = (   0.2500000   0.4330127   0.8985623  )
        25           B   tau(  25) = (   0.5000000   0.0000000   0.8985623  )
        26           N   tau(  26) = (  -0.1249995   0.5051812   0.8985623  )
        27           N   tau(  27) = (   0.1250005   0.5051812   0.8985623  )
        28           N   tau(  28) = (   0.0000005   0.7216875   0.8985623  )
        29           N   tau(  29) = (   0.5000005   0.7216875   0.8985623  )
        30           N   tau(  30) = (   0.1250005   0.0721685   0.8985623  )
        31           N   tau(  31) = (   0.8750005   0.0721685   0.8985623  )
        32           B   tau(  32) = (   0.0000000   0.0000000   0.8985623  )
        33           Cr1 tau(  33) = (   0.5500000   0.2598076   1.2040735  )
        34           Cr2 tau(  34) = (  -0.0500000   0.2598076   1.2040735  )

     number of k points=    15  Gaussian smearing, width (Ry)=  0.0000
                       cart. coord. in units 2pi/alat
        k(    1) = (   0.1666667   0.2886751   0.0000000), wk =   0.0740741
        k(    2) = (   0.1666667  -0.4811252   0.0000000), wk =   0.0740741
        k(    3) = (   0.1666667  -0.0962250   0.0000000), wk =   0.0740741
        k(    4) = (  -0.5000000  -0.8660254   0.0000000), wk =   0.0370370
        k(    5) = (  -0.1666667   0.2886751   0.0000000), wk =   0.0740741
        k(    6) = (   0.3333333   0.0000000   0.0000000), wk =   0.0740741
        k(    7) = (  -0.1666667  -0.4811252   0.0000000), wk =   0.0740741
        k(    8) = (   0.5000000  -0.0962250   0.0000000), wk =   0.0740741
        k(    9) = (  -0.3333333  -0.3849002   0.0000000), wk =   0.0740741
        k(   10) = (   0.5000000   0.0962250   0.0000000), wk =   0.0740741
        k(   11) = (  -0.3333333   0.3849002   0.0000000), wk =   0.0740741
        k(   12) = (  -0.1666667  -0.0962250   0.0000000), wk =   0.0740741
        k(   13) = (  -0.0000000  -0.1924501   0.0000000), wk =   0.0740741
        k(   14) = (   0.5000000  -0.8660254   0.0000000), wk =   0.0370370
        k(   15) = (  -1.0000000   0.0000000   0.0000000), wk =   0.0370370

     Dense  grid:  1741401 G-vectors     FFT dimensions: ( 135, 135, 240)

     Smooth grid:   474235 G-vectors     FFT dimensions: (  90,  90, 160)

     Estimated max dynamical RAM per process >     218.62 MB

     Estimated total dynamical RAM >      10.25 GB
     Generating pointlists ...
     new r_m :   0.0595 (alat units)  1.1269 (a.u.) for type    1
     new r_m :   0.0595 (alat units)  1.1269 (a.u.) for type    2
     new r_m :   0.1283 (alat units)  2.4275 (a.u.) for type    3
     new r_m :   0.1283 (alat units)  2.4275 (a.u.) for type    4

     Initial potential from superposition of free atoms

     starting charge  155.99382, renormalised to  156.00000

     negative rho (up, down):  6.552E-03 4.655E-04
     Starting wfcs are  148 randomized atomic wfcs
     Checking if some PAW data can be deallocated... 

     total cpu time spent up to now is       20.5 secs

     Self-consistent Calculation

     iteration #  1     ecut=    48.00 Ry     beta= 0.50
     Davidson diagonalization with overlap
     ethr =  1.00E-02,  avg # of iterations =  2.9

     negative rho (up, down):  4.720E-03 2.923E-03

     total cpu time spent up to now is       64.6 secs

     total energy              =   -1130.76783349 Ry
     estimated scf accuracy    <      11.36811708 Ry

     total magnetization       =    12.00 Bohr mag/cell
     absolute magnetization    =    12.16 Bohr mag/cell

     iteration #  2     ecut=    48.00 Ry     beta= 0.50
     Davidson diagonalization with overlap
     ethr =  7.29E-03,  avg # of iterations =  2.7

     negative rho (up, down):  7.235E-03 9.866E-03

     total cpu time spent up to now is      105.7 secs

     total energy              =   -1133.07384687 Ry
     estimated scf accuracy    <       3.23468478 Ry

     total magnetization       =    11.85 Bohr mag/cell
     absolute magnetization    =    11.86 Bohr mag/cell

     iteration #  3     ecut=    48.00 Ry     beta= 0.50
     Davidson diagonalization with overlap
     ethr =  2.07E-03,  avg # of iterations =  6.4

     negative rho (up, down):  3.364E-03 5.137E-03

     total cpu time spent up to now is      146.5 secs

     total energy              =   -1133.62660137 Ry
     estimated scf accuracy    <       0.65630576 Ry

     total magnetization       =    12.00 Bohr mag/cell
     absolute magnetization    =    12.05 Bohr mag/cell

     iteration #  4     ecut=    48.00 Ry     beta= 0.50
     Davidson diagonalization with overlap
     ethr =  4.21E-04,  avg # of iterations =  7.6

     negative rho (up, down):  6.817E-03 1.367E-02

     total cpu time spent up to now is      188.1 secs

     total energy              =   -1133.79836914 Ry
     estimated scf accuracy    <       0.26361828 Ry

     total magnetization       =    12.00 Bohr mag/cell
     absolute magnetization    =    12.00 Bohr mag/cell

     iteration #  5     ecut=    48.00 Ry     beta= 0.50
     Davidson diagonalization with overlap
     c_bands:  1 eigenvalues not converged
     ethr =  1.69E-04,  avg # of iterations =  8.7

     negative rho (up, down):  4.477E-03 9.637E-03

     total cpu time spent up to now is      230.9 secs

     total energy              =   -1133.81127174 Ry
     estimated scf accuracy    <       0.01849033 Ry

     total magnetization       =    12.00 Bohr mag/cell
     absolute magnetization    =    12.00 Bohr mag/cell

     iteration #  6     ecut=    48.00 Ry     beta= 0.50
     Davidson diagonalization with overlap
     c_bands:  1 eigenvalues not converged
     c_bands:  1 eigenvalues not converged
     c_bands:  1 eigenvalues not converged
     c_bands:  2 eigenvalues not converged
     c_bands:  1 eigenvalues not converged
     c_bands:  2 eigenvalues not converged
     c_bands:  2 eigenvalues not converged
     c_bands:  1 eigenvalues not converged
     c_bands:  2 eigenvalues not converged
     c_bands:  1 eigenvalues not converged
     c_bands:  3 eigenvalues not converged
     c_bands:  1 eigenvalues not converged
     ethr =  1.19E-05,  avg # of iterations = 14.3

     negative rho (up, down):  3.339E-03 7.652E-03

     total cpu time spent up to now is      291.9 secs

     total energy              =   -1133.81407517 Ry
     estimated scf accuracy    <       0.00407037 Ry

     total magnetization       =    12.00 Bohr mag/cell
     absolute magnetization    =    12.01 Bohr mag/cell

     iteration #  7     ecut=    48.00 Ry     beta= 0.50
     Davidson diagonalization with overlap
     ethr =  2.61E-06,  avg # of iterations =  8.3

     negative rho (up, down):  3.011E-03 7.456E-03

     total cpu time spent up to now is      339.7 secs

     total energy              =   -1133.81528095 Ry
     estimated scf accuracy    <       0.00041373 Ry

     total magnetization       =    12.00 Bohr mag/cell
     absolute magnetization    =    12.00 Bohr mag/cell

     iteration #  8     ecut=    48.00 Ry     beta= 0.50
     Davidson diagonalization with overlap
     ethr =  2.65E-07,  avg # of iterations =  4.4

     negative rho (up, down):  2.881E-03 7.286E-03

     total cpu time spent up to now is      379.8 secs

     total energy              =   -1133.81543199 Ry
     estimated scf accuracy    <       0.00007881 Ry

     total magnetization       =    12.00 Bohr mag/cell
     absolute magnetization    =    12.00 Bohr mag/cell

     iteration #  9     ecut=    48.00 Ry     beta= 0.50
     Davidson diagonalization with overlap
     ethr =  5.05E-08,  avg # of iterations =  2.9

     negative rho (up, down):  2.843E-03 7.262E-03

     total cpu time spent up to now is      419.8 secs

     total energy              =   -1133.81551809 Ry
     estimated scf accuracy    <       0.00000534 Ry

     total magnetization       =    12.00 Bohr mag/cell
     absolute magnetization    =    12.00 Bohr mag/cell

     iteration # 10     ecut=    48.00 Ry     beta= 0.50
     Davidson diagonalization with overlap
     ethr =  3.42E-09,  avg # of iterations =  4.9

     negative rho (up, down):  2.832E-03 7.260E-03

     total cpu time spent up to now is      467.0 secs

     total energy              =   -1133.81554705 Ry
     estimated scf accuracy    <       0.00000435 Ry

     total magnetization       =    12.00 Bohr mag/cell
     absolute magnetization    =    12.00 Bohr mag/cell

     iteration # 11     ecut=    48.00 Ry     beta= 0.50
     Davidson diagonalization with overlap
     ethr =  2.79E-09,  avg # of iterations =  2.1

     negative rho (up, down):  2.828E-03 7.264E-03

     total cpu time spent up to now is      507.2 secs

     total energy              =   -1133.81556295 Ry
     estimated scf accuracy    <       0.00000025 Ry

     total magnetization       =    12.00 Bohr mag/cell
     absolute magnetization    =    12.00 Bohr mag/cell

     iteration # 12     ecut=    48.00 Ry     beta= 0.50
     Davidson diagonalization with overlap
     ethr =  1.57E-10,  avg # of iterations =  4.9

     negative rho (up, down):  2.826E-03 7.268E-03
 
     Magnetic moment per site:
     atom:    1    charge:    0.8809    magn:    0.0007    constr:    0.0000
     atom:    2    charge:    0.8803    magn:    0.0001    constr:    0.0000
     atom:    3    charge:    0.8803    magn:    0.0003    constr:    0.0000
     atom:    4    charge:    0.8803    magn:    0.0006    constr:    0.0000
     atom:    5    charge:    0.8803    magn:    0.0007    constr:    0.0000
     atom:    6    charge:    0.8803    magn:    0.0002    constr:    0.0000
     atom:    7    charge:    2.8605    magn:    0.0100    constr:    0.0000
     atom:    8    charge:    2.8609    magn:    0.0010    constr:    0.0000
     atom:    9    charge:    2.8608    magn:    0.0021    constr:    0.0000
     atom:   10    charge:    2.8607    magn:    0.0047    constr:    0.0000
     atom:   11    charge:    2.8608    magn:    0.0021    constr:    0.0000
     atom:   12    charge:    2.8608    magn:    0.0020    constr:    0.0000
     atom:   13    charge:    2.8597    magn:    0.0115    constr:    0.0000
     atom:   14    charge:    2.8599    magn:    0.0002    constr:    0.0000
     atom:   15    charge:    2.8599    magn:    0.0002    constr:    0.0000
     atom:   16    charge:    0.8801    magn:    0.0007    constr:    0.0000
     atom:   17    charge:    0.8800    magn:    0.0001    constr:    0.0000
     atom:   18    charge:    0.8800    magn:    0.0002    constr:    0.0000
     atom:   19    charge:    0.8798    magn:    0.0007    constr:    0.0000
     atom:   20    charge:    0.8803    magn:    0.0007    constr:    0.0000
     atom:   21    charge:    0.8799    magn:    0.0007    constr:    0.0000
     atom:   22    charge:    2.8610    magn:    0.0115    constr:    0.0000
     atom:   23    charge:    0.8799    magn:    0.0003    constr:    0.0000
     atom:   24    charge:    0.8799    magn:    0.0002    constr:    0.0000
     atom:   25    charge:    0.8799    magn:    0.0002    constr:    0.0000
     atom:   26    charge:    2.8597    magn:    0.0020    constr:    0.0000
     atom:   27    charge:    2.8597    magn:    0.0010    constr:    0.0000
     atom:   28    charge:    2.8598    magn:    0.0003    constr:    0.0000
     atom:   29    charge:    2.8596    magn:    0.0003    constr:    0.0000
     atom:   30    charge:    2.8594    magn:    0.0021    constr:    0.0000
     atom:   31    charge:    2.8594    magn:    0.0047    constr:    0.0000
     atom:   32    charge:    0.8802    magn:    0.0002    constr:    0.0000
     atom:   33    charge:   12.7980    magn:    4.7884    constr:    0.0000
     atom:   34    charge:   12.7981    magn:    4.7884    constr:    0.0000

     total cpu time spent up to now is      546.3 secs

     End of self-consistent calculation

 ------ SPIN UP ------------


          k = 0.1667 0.2887 0.0000 ( 59267 PWs)   bands (ev):

   -72.5121 -72.5119 -43.9774 -43.9762 -43.9715 -43.9713 -43.9636 -43.9633
   -21.2744 -20.6927 -20.6783 -20.1400 -20.1151 -19.6194 -19.6049 -19.1266
   -18.7287 -18.7156 -18.4921 -18.4697 -18.2218 -18.1134 -18.1022 -17.8760
   -12.5109 -12.2377 -12.2230 -11.8483 -11.8429 -11.6843 -11.2220 -11.2116
   -10.4188 -10.3940 -10.1462 -10.1389  -9.6170  -9.6128  -8.8697  -8.8538
    -8.8448  -8.7966  -8.7839  -8.6223  -8.2233  -8.0828  -8.0435  -7.8583
    -7.8509  -7.4662  -7.4619  -7.3299  -7.2669  -7.2366  -7.2308  -6.9932
    -6.9749  -6.5985  -6.5618  -6.1807  -6.1786  -5.8995  -5.4448  -5.3235
    -5.3041  -5.2266  -4.9594  -4.9088  -4.5332  -4.3834  -4.3668  -4.0055
    -2.5122  -1.5686  -1.5037  -1.4894  -1.4715  -1.4324  -1.4007  -1.3856
    -1.3534  -1.3405  -1.2898  -1.2017   0.5976   0.7112   1.0718   1.1074
     1.2312   1.4110   1.4388   1.5596   1.5749   1.6963

          k = 0.1667-0.4811 0.0000 ( 59291 PWs)   bands (ev):

   -72.5121 -72.5119 -43.9774 -43.9763 -43.9716 -43.9713 -43.9636 -43.9633
   -21.1446 -20.9387 -20.7501 -20.1882 -19.8315 -19.4939 -19.3436 -19.2023
   -19.0410 -18.8070 -18.6689 -18.5694 -18.1768 -18.1144 -17.9492 -17.7502
   -12.3751 -12.1401 -12.0707 -11.9326 -11.7077 -11.6833 -11.5788 -10.9680
   -10.9170 -10.6505 -10.5489  -9.8868  -9.7196  -9.3623  -9.1373  -8.6986
    -8.6496  -8.5796  -8.4152  -8.3939  -8.1878  -8.1533  -8.0906  -8.0751
    -7.7153  -7.6496  -7.5211  -7.4996  -7.3852  -7.1972  -7.0937  -6.8890
    -6.6484  -6.4176  -6.2035  -6.1841  -6.0033  -5.9555  -5.8101  -5.7709
    -5.4776  -5.4306  -5.2348  -5.0661  -4.4726  -4.3721  -4.1189  -3.7932
    -2.5061  -1.5736  -1.5039  -1.4868  -1.4712  -1.4293  -1.4045  -1.3855
    -1.3536  -1.3405  -1.2891  -1.2025   0.5702   0.6136   1.0374   1.1137
     1.1633   1.2123   1.3296   1.7823   1.8167   1.9016

          k = 0.1667-0.0962 0.0000 ( 59226 PWs)   bands (ev):

   -72.5121 -72.5119 -43.9774 -43.9762 -43.9715 -43.9713 -43.9636 -43.9633
   -21.3407 -20.5641 -20.3709 -20.3674 -20.0153 -20.0080 -19.8317 -18.7560
   -18.7515 -18.4081 -18.3890 -18.3858 -18.3015 -18.2792 -18.1022 -18.0982
   -12.5380 -12.5252 -12.4337 -11.6067 -11.6038 -11.4595 -11.4397 -10.9519
   -10.9504  -9.9548  -9.9538  -9.7027  -9.4066  -9.3937  -9.2564  -9.2547
    -9.0679  -9.0663  -8.9526  -8.3490  -8.3486  -7.9307  -7.9229  -7.9129
    -7.8722  -7.7965  -7.6328  -7.6165  -7.1567  -7.1246  -6.9860  -6.9144
    -6.9116  -6.8764  -6.5566  -6.5552  -6.2836  -5.3726  -5.3539  -5.1697
    -5.0917  -4.8489  -4.8098  -4.7904  -4.6575  -4.6111  -4.3738  -4.3611
    -2.5183  -1.5635  -1.5037  -1.4918  -1.4716  -1.4366  -1.3975  -1.3856
    -1.3533  -1.3406  -1.2903  -1.2008   0.6191   0.8006   1.0279   1.1223
     1.2537   1.3224   1.4384   1.5591   1.5906   1.6550

          k =-0.5000-0.8660 0.0000 ( 59292 PWs)   bands (ev):

   -72.5121 -72.5119 -43.9775 -43.9762 -43.9716 -43.9713 -43.9636 -43.9633
   -21.0838 -21.0675 -20.4948 -20.4927 -19.4590 -19.4562 -19.4348 -19.4291
   -19.0231 -19.0113 -18.3588 -18.3553 -18.3481 -18.3213 -17.8189 -17.8162
   -12.1022 -12.0956 -12.0942 -12.0745 -11.9038 -11.8995 -11.3596 -11.3495
   -10.2621 -10.2597 -10.1614 -10.1586 -10.1541 -10.1524  -8.6217  -8.5782
    -8.5759  -8.5742  -8.5704  -8.5587  -7.8913  -7.8895  -7.8873  -7.8855
    -7.8465  -7.8455  -7.8023  -7.7899  -7.5206  -7.5078  -6.6378  -6.6344
    -6.3964  -6.3706  -6.3283  -6.3094  -6.2191  -6.2108  -5.7386  -5.7237
    -5.5759  -5.5642  -4.7631  -4.7554  -4.7381  -4.6890  -3.9085  -3.9003
    -2.4496  -1.6646  -1.4957  -1.4897  -1.4662  -1.4292  -1.4049  -1.3885
    -1.3530  -1.3513  -1.3025  -1.2913   0.8298   1.0269   1.0396   1.2095
     1.2709   1.3038   1.4657   1.5793   1.6039   1.6601

          k =-0.1667 0.2887 0.0000 ( 59267 PWs)   bands (ev):

   -72.5121 -72.5119 -43.9774 -43.9762 -43.9715 -43.9713 -43.9636 -43.9633
   -21.2744 -20.6927 -20.6783 -20.1400 -20.1151 -19.6195 -19.6049 -19.1266
   -18.7287 -18.7155 -18.4921 -18.4697 -18.2218 -18.1135 -18.1022 -17.8760
   -12.5109 -12.2377 -12.2230 -11.8483 -11.8429 -11.6843 -11.2220 -11.2116
   -10.4188 -10.3940 -10.1463 -10.1389  -9.6170  -9.6127  -8.8697  -8.8538
    -8.8447  -8.7966  -8.7839  -8.6223  -8.2234  -8.0828  -8.0435  -7.8583
    -7.8509  -7.4662  -7.4619  -7.3299  -7.2669  -7.2366  -7.2307  -6.9932
    -6.9749  -6.5985  -6.5618  -6.1808  -6.1785  -5.8995  -5.4449  -5.3235
    -5.3041  -5.2265  -4.9594  -4.9088  -4.5332  -4.3834  -4.3668  -4.0055
    -2.5122  -1.5686  -1.5037  -1.4894  -1.4715  -1.4324  -1.4007  -1.3856
    -1.3534  -1.3405  -1.2898  -1.2017   0.5976   0.7111   1.0718   1.1074
     1.2311   1.4110   1.4388   1.5595   1.5750   1.6964

          k = 0.3333 0.0000 0.0000 ( 59267 PWs)   bands (ev):

   -72.5121 -72.5119 -43.9775 -43.9762 -43.9715 -43.9713 -43.9636 -43.9633
   -21.2739 -20.7155 -20.6552 -20.1389 -20.1148 -19.6426 -19.5836 -19.1288
   -18.7439 -18.6946 -18.4943 -18.4699 -18.2177 -18.1354 -18.0865 -17.8752
   -12.5100 -12.2394 -12.2217 -11.8569 -11.8367 -11.6827 -11.2365 -11.1969
   -10.4181 -10.3933 -10.1591 -10.1272  -9.6221  -9.6063  -8.8698  -8.8549
    -8.8413  -8.8154  -8.7660  -8.6229  -8.2255  -8.1350  -7.9898  -7.8559
    -7.8507  -7.4720  -7.4565  -7.3313  -7.2615  -7.2447  -7.2219  -6.9948
    -6.9752  -6.6490  -6.5176  -6.1833  -6.1751  -5.9055  -5.4449  -5.3472
    -5.2688  -5.2268  -4.9623  -4.9103  -4.5258  -4.4152  -4.3453  -4.0048
    -2.4768  -1.6230  -1.4984  -1.4909  -1.4682  -1.4339  -1.4005  -1.3869
    -1.3533  -1.3476  -1.2922  -1.2749   0.8426   0.9410   1.1138   1.1745
     1.2072   1.3780   1.4190   1.5261   1.5556   1.6333

          k =-0.1667-0.4811 0.0000 ( 59291 PWs)   bands (ev):

   -72.5121 -72.5119 -43.9774 -43.9763 -43.9715 -43.9713 -43.9636 -43.9633
   -21.1446 -20.9387 -20.7501 -20.1882 -19.8315 -19.4939 -19.3436 -19.2023
   -19.0410 -18.8070 -18.6689 -18.5694 -18.1768 -18.1144 -17.9492 -17.7502
   -12.3752 -12.1401 -12.0707 -11.9326 -11.7076 -11.6833 -11.5788 -10.9680
   -10.9170 -10.6505 -10.5489  -9.8868  -9.7196  -9.3624  -9.1374  -8.6986
    -8.6496  -8.5796  -8.4152  -8.3939  -8.1877  -8.1533  -8.0906  -8.0752
    -7.7153  -7.6497  -7.5211  -7.4995  -7.3852  -7.1972  -7.0937  -6.8890
    -6.6485  -6.4177  -6.2035  -6.1841  -6.0033  -5.9554  -5.8101  -5.7709
    -5.4777  -5.4306  -5.2347  -5.0661  -4.4726  -4.3721  -4.1189  -3.7932
    -2.5061  -1.5736  -1.5039  -1.4868  -1.4712  -1.4293  -1.4045  -1.3855
    -1.3536  -1.3405  -1.2891  -1.2025   0.5702   0.6136   1.0374   1.1137
     1.1633   1.2123   1.3297   1.7825   1.8166   1.9017

          k = 0.5000-0.0962 0.0000 ( 59291 PWs)   bands (ev):

   -72.5121 -72.5119 -43.9775 -43.9762 -43.9715 -43.9713 -43.9636 -43.9633
   -21.1415 -20.9473 -20.7444 -20.1865 -19.8316 -19.4950 -19.3515 -19.1963
   -19.0421 -18.8067 -18.6584 -18.5766 -18.1654 -18.1312 -17.9451 -17.7501
   -12.3733 -12.1410 -12.0686 -11.9371 -11.7199 -11.6692 -11.5809 -10.9692
   -10.9139 -10.6482 -10.5517  -9.8848  -9.7201  -9.3633  -9.1368  -8.6870
    -8.6501  -8.5776  -8.4299  -8.4185  -8.1855  -8.1298  -8.1035  -8.0631
    -7.7110  -7.6504  -7.5202  -7.5009  -7.3803  -7.1983  -7.0948  -6.8887
    -6.6489  -6.4222  -6.2278  -6.1835  -5.9842  -5.9551  -5.8092  -5.7744
    -5.4788  -5.4260  -5.2137  -5.0827  -4.4510  -4.4028  -4.1110  -3.7938
    -2.4496  -1.6646  -1.4957  -1.4895  -1.4662  -1.4301  -1.4047  -1.3885
    -1.3530  -1.3513  -1.3025  -1.2913   0.7998   1.0099   1.0556   1.1539
     1.2525   1.2967   1.3565   1.4962   1.6425   1.7931

          k =-0.3333-0.3849 0.0000 ( 59291 PWs)   bands (ev):

   -72.5121 -72.5119 -43.9774 -43.9762 -43.9716 -43.9713 -43.9636 -43.9633
   -21.1426 -20.9443 -20.7465 -20.1863 -19.8334 -19.4935 -19.3460 -19.1995
   -19.0459 -18.8045 -18.6600 -18.5757 -18.1675 -18.1284 -17.9453 -17.7503
   -12.3745 -12.1382 -12.0715 -11.9351 -11.7090 -11.6816 -11.5801 -10.9687
   -10.9142 -10.6477 -10.5522  -9.8850  -9.7201  -9.3635  -9.1376  -8.6907
    -8.6488  -8.5792  -8.4187  -8.4147  -8.1872  -8.1382  -8.0908  -8.0774
    -7.7117  -7.6484  -7.5271  -7.4944  -7.3792  -7.1985  -7.0954  -6.8950
    -6.6469  -6.4168  -6.2111  -6.1861  -5.9946  -5.9536  -5.8094  -5.7855
    -5.4787  -5.4197  -5.2146  -5.0830  -4.4529  -4.4006  -4.1108  -3.7940
    -2.4699  -1.6295  -1.4986  -1.4887  -1.4679  -1.4293  -1.4048  -1.3877
    -1.3532  -1.3475  -1.2916  -1.2754   0.7153   0.9082   1.0594   1.1332
     1.2035   1.2217   1.3043   1.5825   1.7490   1.8539

          k = 0.5000 0.0962 0.0000 ( 59291 PWs)   bands (ev):

   -72.5121 -72.5119 -43.9775 -43.9762 -43.9715 -43.9713 -43.9636 -43.9633
   -21.1415 -20.9473 -20.7444 -20.1865 -19.8316 -19.4950 -19.3515 -19.1963
   -19.0421 -18.8067 -18.6584 -18.5766 -18.1654 -18.1312 -17.9451 -17.7501
   -12.3733 -12.1410 -12.0685 -11.9371 -11.7199 -11.6691 -11.5809 -10.9692
   -10.9139 -10.6482 -10.5517  -9.8848  -9.7201  -9.3633  -9.1367  -8.6870
    -8.6501  -8.5777  -8.4299  -8.4185  -8.1855  -8.1298  -8.1035  -8.0631
    -7.7110  -7.6503  -7.5202  -7.5010  -7.3803  -7.1984  -7.0947  -6.8887
    -6.6488  -6.4222  -6.2278  -6.1834  -5.9842  -5.9550  -5.8093  -5.7744
    -5.4788  -5.4260  -5.2137  -5.0827  -4.4510  -4.4028  -4.1110  -3.7938
    -2.4496  -1.6646  -1.4957  -1.4895  -1.4662  -1.4301  -1.4047  -1.3885
    -1.3530  -1.3513  -1.3025  -1.2913   0.7998   1.0099   1.0556   1.1538
     1.2525   1.2967   1.3565   1.4962   1.6425   1.7931

          k =-0.3333 0.3849 0.0000 ( 59291 PWs)   bands (ev):

   -72.5121 -72.5119 -43.9774 -43.9762 -43.9716 -43.9713 -43.9636 -43.9633
   -21.1426 -20.9443 -20.7465 -20.1863 -19.8334 -19.4935 -19.3460 -19.1995
   -19.0459 -18.8045 -18.6599 -18.5757 -18.1675 -18.1284 -17.9453 -17.7503
   -12.3745 -12.1382 -12.0715 -11.9351 -11.7090 -11.6816 -11.5801 -10.9687
   -10.9142 -10.6477 -10.5522  -9.8850  -9.7201  -9.3634  -9.1377  -8.6907
    -8.6488  -8.5792  -8.4187  -8.4147  -8.1872  -8.1382  -8.0908  -8.0774
    -7.7116  -7.6483  -7.5271  -7.4943  -7.3792  -7.1984  -7.0955  -6.8950
    -6.6469  -6.4168  -6.2111  -6.1862  -5.9945  -5.9537  -5.8093  -5.7855
    -5.4786  -5.4197  -5.2146  -5.0830  -4.4529  -4.4006  -4.1108  -3.7940
    -2.4699  -1.6295  -1.4986  -1.4887  -1.4679  -1.4293  -1.4048  -1.3877
    -1.3532  -1.3475  -1.2916  -1.2754   0.7153   0.9082   1.0594   1.1332
     1.2035   1.2217   1.3043   1.5825   1.7490   1.8539

          k =-0.1667-0.0962 0.0000 ( 59226 PWs)   bands (ev):

   -72.5121 -72.5119 -43.9774 -43.9762 -43.9715 -43.9713 -43.9636 -43.9633
   -21.3407 -20.5641 -20.3709 -20.3674 -20.0153 -20.0080 -19.8316 -18.7560
   -18.7515 -18.4081 -18.3890 -18.3858 -18.3015 -18.2792 -18.1022 -18.0982
   -12.5380 -12.5252 -12.4336 -11.6067 -11.6037 -11.4595 -11.4397 -10.9519
   -10.9504  -9.9549  -9.9538  -9.7026  -9.4066  -9.3937  -9.2564  -9.2547
    -9.0679  -9.0663  -8.9526  -8.3491  -8.3487  -7.9307  -7.9229  -7.9129
    -7.8722  -7.7965  -7.6328  -7.6165  -7.1567  -7.1246  -6.9861  -6.9144
    -6.9116  -6.8764  -6.5566  -6.5551  -6.2837  -5.3726  -5.3540  -5.1696
    -5.0918  -4.8489  -4.8098  -4.7904  -4.6575  -4.6111  -4.3738  -4.3611
    -2.5183  -1.5635  -1.5037  -1.4918  -1.4716  -1.4366  -1.3975  -1.3856
    -1.3533  -1.3406  -1.2903  -1.2008   0.6191   0.8006   1.0279   1.1223
     1.2537   1.3225   1.4384   1.5591   1.5906   1.6550

          k =-0.0000-0.1925 0.0000 ( 59226 PWs)   bands (ev):

   -72.5121 -72.5119 -43.9774 -43.9762 -43.9715 -43.9713 -43.9636 -43.9633
   -21.3408 -20.5582 -20.3897 -20.3585 -20.0185 -19.9965 -19.8360 -18.7639
   -18.7386 -18.4398 -18.3867 -18.3756 -18.2802 -18.2801 -18.1149 -18.0917
   -12.5400 -12.5239 -12.4331 -11.6148 -11.5964 -11.4576 -11.4394 -10.9552
   -10.9488  -9.9607  -9.9483  -9.7027  -9.4047  -9.3935  -9.2586  -9.2537
    -9.0681  -9.0669  -8.9532  -8.3525  -8.3443  -7.9311  -7.9229  -7.8899
    -7.8695  -7.7985  -7.6895  -7.5968  -7.1531  -7.1001  -6.9844  -6.9190
    -6.9089  -6.8910  -6.5610  -6.5497  -6.2845  -5.3884  -5.3251  -5.1699
    -5.0915  -4.9051  -4.8128  -4.7667  -4.6200  -4.6126  -4.4025  -4.3456
    -2.5340  -1.5438  -1.5062  -1.4909  -1.4732  -1.4359  -1.3976  -1.3852
    -1.3533  -1.3372  -1.2892  -1.1504   0.4677   0.7371   1.0126   1.0950
     1.2068   1.3765   1.4365   1.5778   1.6444   1.7610

          k = 0.5000-0.8660 0.0000 ( 59292 PWs)   bands (ev):

   -72.5121 -72.5119 -43.9775 -43.9762 -43.9716 -43.9713 -43.9636 -43.9633
   -21.0838 -21.0675 -20.4948 -20.4927 -19.4590 -19.4562 -19.4348 -19.4291
   -19.0232 -19.0112 -18.3588 -18.3553 -18.3481 -18.3213 -17.8189 -17.8162
   -12.1022 -12.0956 -12.0943 -12.0744 -11.9038 -11.8995 -11.3596 -11.3494
   -10.2621 -10.2597 -10.1614 -10.1586 -10.1541 -10.1524  -8.6217  -8.5782
    -8.5759  -8.5742  -8.5704  -8.5586  -7.8914  -7.8894  -7.8873  -7.8855
    -7.8465  -7.8456  -7.8023  -7.7899  -7.5206  -7.5079  -6.6377  -6.6344
    -6.3964  -6.3706  -6.3283  -6.3094  -6.2191  -6.2107  -5.7386  -5.7237
    -5.5760  -5.5643  -4.7631  -4.7554  -4.7381  -4.6889  -3.9085  -3.9003
    -2.4496  -1.6646  -1.4957  -1.4897  -1.4662  -1.4292  -1.4049  -1.3885
    -1.3530  -1.3513  -1.3025  -1.2913   0.8299   1.0269   1.0396   1.2094
     1.2709   1.3038   1.4656   1.5784   1.6039   1.6615

          k =-1.0000 0.0000 0.0000 ( 59292 PWs)   bands (ev):

   -72.5121 -72.5119 -43.9775 -43.9763 -43.9716 -43.9713 -43.9636 -43.9633
   -21.1043 -21.0438 -20.5107 -20.4819 -19.4771 -19.4333 -19.4320 -19.4292
   -19.0438 -18.9941 -18.4110 -18.3411 -18.3281 -18.3030 -17.8307 -17.8068
   -12.1404 -12.0951 -12.0704 -12.0569 -11.9130 -11.8909 -11.3767 -11.3337
   -10.2826 -10.2559 -10.1617 -10.1565 -10.1492 -10.1446  -8.6640  -8.6080
    -8.5766  -8.5573  -8.5400  -8.5156  -7.9115  -7.9009  -7.8854  -7.8753
    -7.8521  -7.8369  -7.8316  -7.7651  -7.5418  -7.4896  -6.6425  -6.6263
    -6.4272  -6.3271  -6.3255  -6.3005  -6.2363  -6.1966  -5.7797  -5.6963
    -5.5944  -5.5461  -4.8488  -4.7442  -4.6878  -4.6640  -3.9352  -3.8784
    -2.5223  -1.5525  -1.5064  -1.4859  -1.4728  -1.4291  -1.4043  -1.3839
    -1.3539  -1.3372  -1.2880  -1.1526   0.4580   0.5275   1.0431   1.0803
     1.1841   1.3679   1.5492   1.5945   1.6117   1.9278

 ------ SPIN DOWN ----------


          k = 0.1667 0.2887 0.0000 ( 59267 PWs)   bands (ev):

   -68.1443 -68.1440 -39.6483 -39.6470 -39.6356 -39.6350 -39.6308 -39.6305
   -21.2669 -20.6843 -20.6723 -20.1313 -20.1094 -19.6112 -19.5992 -19.1192
   -18.7187 -18.7091 -18.4838 -18.4637 -18.2131 -18.1060 -18.0973 -17.8688
   -12.5059 -12.2319 -12.2189 -11.8437 -11.8387 -11.6802 -11.2165 -11.2073
   -10.4134 -10.3889 -10.1405 -10.1344  -9.6118  -9.6083  -8.8537  -8.8397
    -8.8353  -8.7913  -8.7801  -8.6178  -8.2190  -8.0520  -8.0238  -7.8533
    -7.8467  -7.4600  -7.4568  -7.2968  -7.2523  -7.2316  -7.2267  -6.9879
    -6.9713  -6.5713  -6.5452  -6.1758  -6.1740  -5.8764  -5.4395  -5.2943
    -5.2823  -5.2217  -4.9330  -4.8947  -4.5091  -4.3626  -4.3523  -3.9861
    -0.3728   0.7214   1.0411   1.1846   1.3064   1.3811   1.4485   1.5109
     1.5549   1.7944   1.9026   2.0871   2.1495   2.2261   2.2942   2.3150
     2.3876   2.4601   2.5085   2.5347   2.5630   2.6000

          k = 0.1667-0.4811 0.0000 ( 59291 PWs)   bands (ev):

   -68.1443 -68.1440 -39.6483 -39.6470 -39.6356 -39.6350 -39.6308 -39.6305
   -21.1363 -20.9327 -20.7427 -20.1807 -19.8244 -19.4867 -19.3365 -19.1947
   -19.0339 -18.7998 -18.6589 -18.5642 -18.1663 -18.1107 -17.9417 -17.7429
   -12.3700 -12.1350 -12.0663 -11.9282 -11.7035 -11.6787 -11.5742 -10.9630
   -10.9114 -10.6448 -10.5446  -9.8811  -9.7149  -9.3571  -9.1325  -8.6648
    -8.6446  -8.5741  -8.4109  -8.3771  -8.1831  -8.1266  -8.0857  -8.0711
    -7.7100  -7.6450  -7.5162  -7.4957  -7.3589  -7.1919  -7.0893  -6.8658
    -6.6428  -6.3951  -6.1817  -6.1790  -5.9790  -5.9499  -5.8052  -5.7501
    -5.4730  -5.4066  -5.2043  -5.0532  -4.4428  -4.3631  -4.0975  -3.7742
    -0.3419   0.6995   0.9950   1.0966   1.1294   1.2627   1.3455   1.7610
     1.8149   1.8815   2.0162   2.0887   2.2005   2.2374   2.2791   2.3289
     2.3719   2.4257   2.4821   2.4930   2.5609   2.6160

          k = 0.1667-0.0962 0.0000 ( 59226 PWs)   bands (ev):

   -68.1443 -68.1440 -39.6483 -39.6470 -39.6356 -39.6350 -39.6308 -39.6305
   -21.3333 -20.5556 -20.3640 -20.3614 -20.0067 -20.0013 -19.8259 -18.7470
   -18.7439 -18.3995 -18.3813 -18.3783 -18.2933 -18.2735 -18.0954 -18.0926
   -12.5324 -12.5209 -12.4290 -11.6020 -11.5995 -11.4537 -11.4359 -10.9468
   -10.9458  -9.9498  -9.9489  -9.6972  -9.4011  -9.3893  -9.2509  -9.2496
    -9.0633  -9.0618  -8.9255  -8.3435  -8.3432  -7.9253  -7.9186  -7.8805
    -7.8649  -7.7922  -7.6089  -7.5994  -7.1247  -7.1055  -6.9811  -6.9097
    -6.9075  -6.8613  -6.5518  -6.5508  -6.2791  -5.3425  -5.3317  -5.1646
    -5.0867  -4.8226  -4.7909  -4.7651  -4.6337  -4.5978  -4.3537  -4.3463
    -0.4017   0.7479   1.0502   1.0874   1.2525   1.4330   1.4845   1.5570
     1.7682   1.8490   1.9446   2.0273   2.0754   2.1257   2.2992   2.3277
     2.4090   2.4602   2.4688   2.5220   2.5593   2.5986

          k =-0.5000-0.8660 0.0000 ( 59292 PWs)   bands (ev):

   -68.1443 -68.1440 -39.6483 -39.6470 -39.6356 -39.6350 -39.6309 -39.6305
   -21.0749 -21.0614 -20.4878 -20.4862 -19.4496 -19.4473 -19.4277 -19.4242
   -19.0149 -19.0058 -18.3497 -18.3470 -18.3391 -18.3179 -17.8113 -17.8096
   -12.0961 -12.0903 -12.0890 -12.0714 -11.8993 -11.8957 -11.3542 -11.3451
   -10.2565 -10.2547 -10.1556 -10.1535 -10.1494 -10.1479  -8.5866  -8.5725
    -8.5703  -8.5670  -8.5558  -8.5514  -7.8858  -7.8843  -7.8826  -7.8811
    -7.8412  -7.8405  -7.7790  -7.7704  -7.5155  -7.5044  -6.6322  -6.6300
    -6.3563  -6.3413  -6.3092  -6.2979  -6.2135  -6.2062  -5.7165  -5.7058
    -5.5701  -5.5603  -4.7355  -4.7300  -4.7145  -4.6806  -3.8875  -3.8830
    -0.2608   0.3947   0.9997   1.0633   1.3813   1.4573   1.4635   1.5595
     1.7604   1.7671   2.0194   2.0480   2.1752   2.2464   2.3364   2.3652
     2.3896   2.4218   2.5058   2.5175   2.5706   2.6318

          k =-0.1667 0.2887 0.0000 ( 59267 PWs)   bands (ev):

   -68.1443 -68.1440 -39.6483 -39.6470 -39.6356 -39.6350 -39.6308 -39.6305
   -21.2669 -20.6843 -20.6723 -20.1313 -20.1094 -19.6112 -19.5992 -19.1192
   -18.7188 -18.7090 -18.4838 -18.4637 -18.2131 -18.1060 -18.0972 -17.8688
   -12.5059 -12.2319 -12.2189 -11.8437 -11.8388 -11.6802 -11.2165 -11.2072
   -10.4134 -10.3889 -10.1405 -10.1344  -9.6118  -9.6082  -8.8537  -8.8396
    -8.8353  -8.7913  -8.7802  -8.6178  -8.2191  -8.0520  -8.0238  -7.8533
    -7.8467  -7.4600  -7.4568  -7.2968  -7.2523  -7.2316  -7.2267  -6.9880
    -6.9714  -6.5714  -6.5452  -6.1758  -6.1739  -5.8764  -5.4396  -5.2943
    -5.2823  -5.2216  -4.9330  -4.8947  -4.5091  -4.3626  -4.3523  -3.9861
    -0.3728   0.7214   1.0412   1.1845   1.3064   1.3811   1.4485   1.5109
     1.5549   1.7944   1.9026   2.0870   2.1496   2.2259   2.2943   2.3153
     2.3876   2.4600   2.5079   2.5349   2.5630   2.6006

          k = 0.3333 0.0000 0.0000 ( 59267 PWs)   bands (ev):

   -68.1443 -68.1440 -39.6483 -39.6470 -39.6356 -39.6350 -39.6308 -39.6305
   -21.2665 -20.7041 -20.6523 -20.1299 -20.1098 -19.6310 -19.5807 -19.1208
   -18.7323 -18.6914 -18.4848 -18.4644 -18.2100 -18.1244 -18.0834 -17.8682
   -12.5052 -12.2330 -12.2180 -11.8514 -11.8330 -11.6789 -11.2299 -11.1938
   -10.4128 -10.3884 -10.1515 -10.1242  -9.6163  -9.6027  -8.8530  -8.8431
    -8.8313  -8.8081  -8.7640  -8.6183  -8.2206  -8.0909  -7.9842  -7.8512
    -7.8467  -7.4650  -7.4522  -7.2968  -7.2496  -7.2390  -7.2188  -6.9888
    -6.9719  -6.6085  -6.5117  -6.1781  -6.1710  -5.8797  -5.4396  -5.3131
    -5.2574  -5.2219  -4.9336  -4.8964  -4.5044  -4.3864  -4.3346  -3.9857
    -0.3293   0.5266   1.0414   1.1491   1.3467   1.4657   1.4749   1.5226
     1.5727   1.7667   2.0093   2.1361   2.1893   2.2330   2.2712   2.3981
     2.4201   2.4506   2.4771   2.5399   2.5548   2.6025

          k =-0.1667-0.4811 0.0000 ( 59291 PWs)   bands (ev):

   -68.1443 -68.1440 -39.6483 -39.6470 -39.6356 -39.6350 -39.6308 -39.6305
   -21.1363 -20.9327 -20.7427 -20.1807 -19.8244 -19.4867 -19.3365 -19.1947
   -19.0339 -18.7998 -18.6589 -18.5642 -18.1663 -18.1107 -17.9417 -17.7429
   -12.3701 -12.1350 -12.0663 -11.9282 -11.7035 -11.6787 -11.5742 -10.9630
   -10.9115 -10.6448 -10.5446  -9.8811  -9.7149  -9.3572  -9.1326  -8.6648
    -8.6446  -8.5741  -8.4109  -8.3771  -8.1831  -8.1266  -8.0857  -8.0712
    -7.7100  -7.6451  -7.5161  -7.4957  -7.3589  -7.1919  -7.0893  -6.8658
    -6.6428  -6.3951  -6.1818  -6.1790  -5.9790  -5.9498  -5.8051  -5.7501
    -5.4731  -5.4066  -5.2043  -5.0532  -4.4428  -4.3631  -4.0975  -3.7742
    -0.3419   0.6996   0.9950   1.0965   1.1294   1.2627   1.3455   1.7611
     1.8149   1.8815   2.0163   2.0886   2.2005   2.2374   2.2786   2.3289
     2.3721   2.4260   2.4825   2.4930   2.5624   2.6167

          k = 0.5000-0.0962 0.0000 ( 59291 PWs)   bands (ev):

   -68.1443 -68.1440 -39.6483 -39.6470 -39.6356 -39.6350 -39.6308 -39.6305
   -21.1340 -20.9391 -20.7385 -20.1794 -19.8246 -19.4874 -19.3424 -19.1904
   -19.0347 -18.7994 -18.6513 -18.5695 -18.1572 -18.1236 -17.9388 -17.7429
   -12.3686 -12.1358 -12.0645 -11.9318 -11.7140 -11.6665 -11.5760 -10.9640
   -10.9090 -10.6430 -10.5468  -9.8795  -9.7153  -9.3579  -9.1321  -8.6585
    -8.6447  -8.5726  -8.4150  -8.3963  -8.1813  -8.1135  -8.0969  -8.0606
    -7.7066  -7.6457  -7.5153  -7.4969  -7.3559  -7.1929  -7.0901  -6.8658
    -6.6432  -6.3974  -6.1952  -6.1789  -5.9685  -5.9497  -5.8044  -5.7518
    -5.4740  -5.4042  -5.1920  -5.0629  -4.4283  -4.3824  -4.0932  -3.7745
    -0.2616   0.3997   0.9891   1.0951   1.1332   1.2872   1.5854   1.7204
     1.7933   2.0072   2.0468   2.1144   2.1442   2.2307   2.3138   2.3518
     2.4290   2.4539   2.4803   2.5391   2.5517   2.6184

          k =-0.3333-0.3849 0.0000 ( 59291 PWs)   bands (ev):

   -68.1443 -68.1440 -39.6483 -39.6470 -39.6356 -39.6350 -39.6309 -39.6305
   -21.1348 -20.9369 -20.7400 -20.1793 -19.8258 -19.4864 -19.3383 -19.1926
   -19.0375 -18.7979 -18.6524 -18.5689 -18.1588 -18.1216 -17.9389 -17.7430
   -12.3695 -12.1335 -12.0669 -11.9303 -11.7046 -11.6772 -11.5752 -10.9635
   -10.9093 -10.6426 -10.5472  -9.8797  -9.7154  -9.3580  -9.1327  -8.6602
    -8.6439  -8.5738  -8.4122  -8.3897  -8.1827  -8.1182  -8.0857  -8.0730
    -7.7072  -7.6440  -7.5212  -7.4913  -7.3555  -7.1930  -7.0906  -6.8693
    -6.6415  -6.3945  -6.1860  -6.1805  -5.9742  -5.9486  -5.8046  -5.7581
    -5.4739  -5.4009  -5.1925  -5.0629  -4.4296  -4.3811  -4.0931  -3.7746
    -0.2923   0.4893   0.9878   1.0740   1.1890   1.2514   1.4693   1.7610
     1.8923   1.9550   2.0391   2.0642   2.1307   2.2394   2.3051   2.3528
     2.3973   2.4628   2.4721   2.5261   2.5630   2.5996

          k = 0.5000 0.0962 0.0000 ( 59291 PWs)   bands (ev):

   -68.1443 -68.1440 -39.6483 -39.6470 -39.6356 -39.6350 -39.6308 -39.6305
   -21.1340 -20.9391 -20.7385 -20.1794 -19.8246 -19.4874 -19.3424 -19.1903
   -19.0346 -18.7994 -18.6513 -18.5695 -18.1572 -18.1236 -17.9388 -17.7429
   -12.3686 -12.1358 -12.0645 -11.9319 -11.7140 -11.6665 -11.5760 -10.9639
   -10.9090 -10.6430 -10.5468  -9.8795  -9.7154  -9.3579  -9.1321  -8.6585
    -8.6447  -8.5726  -8.4150  -8.3963  -8.1813  -8.1135  -8.0969  -8.0606
    -7.7067  -7.6456  -7.5154  -7.4969  -7.3559  -7.1929  -7.0901  -6.8658
    -6.6431  -6.3974  -6.1952  -6.1788  -5.9685  -5.9496  -5.8045  -5.7518
    -5.4740  -5.4042  -5.1920  -5.0629  -4.4283  -4.3824  -4.0932  -3.7745
    -0.2616   0.3998   0.9891   1.0951   1.1332   1.2871   1.5854   1.7204
     1.7933   2.0073   2.0467   2.1142   2.1441   2.2307   2.3138   2.3518
     2.4290   2.4538   2.4801   2.5393   2.5515   2.6184

          k =-0.3333 0.3849 0.0000 ( 59291 PWs)   bands (ev):

   -68.1443 -68.1440 -39.6483 -39.6470 -39.6356 -39.6350 -39.6309 -39.6305
   -21.1348 -20.9369 -20.7400 -20.1793 -19.8258 -19.4864 -19.3384 -19.1926
   -19.0375 -18.7979 -18.6524 -18.5689 -18.1588 -18.1216 -17.9389 -17.7430
   -12.3695 -12.1335 -12.0669 -11.9303 -11.7046 -11.6772 -11.5752 -10.9635
   -10.9093 -10.6425 -10.5472  -9.8797  -9.7153  -9.3580  -9.1327  -8.6602
    -8.6440  -8.5737  -8.4123  -8.3897  -8.1828  -8.1182  -8.0857  -8.0729
    -7.7072  -7.6440  -7.5212  -7.4913  -7.3555  -7.1929  -7.0906  -6.8693
    -6.6416  -6.3945  -6.1860  -6.1806  -5.9742  -5.9486  -5.8045  -5.7581
    -5.4738  -5.4009  -5.1925  -5.0629  -4.4296  -4.3811  -4.0930  -3.7746
    -0.2922   0.4892   0.9878   1.0740   1.1890   1.2514   1.4693   1.7611
     1.8923   1.9551   2.0390   2.0642   2.1310   2.2392   2.3052   2.3529
     2.3972   2.4629   2.4718   2.5259   2.5627   2.5996

          k =-0.1667-0.0962 0.0000 ( 59226 PWs)   bands (ev):

   -68.1443 -68.1440 -39.6483 -39.6470 -39.6356 -39.6350 -39.6308 -39.6305
   -21.3333 -20.5556 -20.3640 -20.3614 -20.0067 -20.0014 -19.8259 -18.7470
   -18.7439 -18.3995 -18.3814 -18.3782 -18.2934 -18.2735 -18.0954 -18.0926
   -12.5325 -12.5209 -12.4290 -11.6020 -11.5995 -11.4537 -11.4359 -10.9468
   -10.9458  -9.9498  -9.9489  -9.6972  -9.4010  -9.3892  -9.2509  -9.2496
    -9.0633  -9.0618  -8.9255  -8.3435  -8.3432  -7.9252  -7.9186  -7.8805
    -7.8649  -7.7922  -7.6089  -7.5994  -7.1247  -7.1055  -6.9812  -6.9096
    -6.9075  -6.8613  -6.5517  -6.5507  -6.2792  -5.3425  -5.3317  -5.1645
    -5.0868  -4.8226  -4.7908  -4.7651  -4.6337  -4.5978  -4.3537  -4.3463
    -0.4017   0.7479   1.0502   1.0874   1.2526   1.4330   1.4845   1.5570
     1.7681   1.8491   1.9445   2.0273   2.0752   2.1258   2.2992   2.3279
     2.4089   2.4602   2.4687   2.5217   2.5593   2.5986

          k =-0.0000-0.1925 0.0000 ( 59226 PWs)   bands (ev):

   -68.1443 -68.1440 -39.6483 -39.6470 -39.6356 -39.6350 -39.6308 -39.6305
   -21.3334 -20.5512 -20.3798 -20.3528 -20.0110 -19.9909 -19.8291 -18.7549
   -18.7323 -18.4237 -18.3808 -18.3691 -18.2766 -18.2747 -18.1067 -18.0859
   -12.5338 -12.5200 -12.4285 -11.6094 -11.5928 -11.4519 -11.4359 -10.9499
   -10.9441  -9.9549  -9.9440  -9.6973  -9.3993  -9.3894  -9.2530  -9.2484
    -9.0633  -9.0624  -8.9259  -8.3468  -8.3391  -7.9258  -7.9189  -7.8706
    -7.8597  -7.7937  -7.6460  -7.5831  -7.1279  -7.0862  -6.9798  -6.9138
    -6.9047  -6.8698  -6.5560  -6.5458  -6.2797  -5.3570  -5.3103  -5.1647
    -5.0865  -4.8554  -4.7933  -4.7509  -4.6099  -4.5998  -4.3749  -4.3325
    -0.4188   0.8650   1.0673   1.1120   1.2274   1.3812   1.4837   1.5043
     1.7468   1.8839   1.9007   1.9591   2.0150   2.1597   2.2698   2.3110
     2.3288   2.4408   2.5202   2.5387   2.5971   2.6810

          k = 0.5000-0.8660 0.0000 ( 59292 PWs)   bands (ev):

   -68.1443 -68.1440 -39.6483 -39.6470 -39.6356 -39.6350 -39.6309 -39.6305
   -21.0749 -21.0614 -20.4878 -20.4862 -19.4496 -19.4473 -19.4277 -19.4242
   -19.0149 -19.0058 -18.3497 -18.3470 -18.3391 -18.3179 -17.8112 -17.8096
   -12.0961 -12.0903 -12.0891 -12.0713 -11.8993 -11.8957 -11.3542 -11.3450
   -10.2565 -10.2547 -10.1556 -10.1535 -10.1494 -10.1479  -8.5866  -8.5726
    -8.5703  -8.5669  -8.5557  -8.5514  -7.8859  -7.8843  -7.8826  -7.8811
    -7.8412  -7.8405  -7.7789  -7.7704  -7.5156  -7.5044  -6.6321  -6.6299
    -6.3563  -6.3413  -6.3092  -6.2979  -6.2135  -6.2061  -5.7165  -5.7058
    -5.5702  -5.5604  -4.7355  -4.7300  -4.7145  -4.6805  -3.8875  -3.8830
    -0.2608   0.3947   0.9998   1.0634   1.3813   1.4573   1.4635   1.5595
     1.7603   1.7672   2.0192   2.0478   2.1753   2.2462   2.3366   2.3652
     2.3900   2.4219   2.5052   2.5170   2.5707   2.6353

          k =-1.0000 0.0000 0.0000 ( 59292 PWs)   bands (ev):

   -68.1443 -68.1440 -39.6483 -39.6471 -39.6356 -39.6350 -39.6308 -39.6305
   -21.0930 -21.0409 -20.5015 -20.4763 -19.4657 -19.4280 -19.4255 -19.4241
   -19.0323 -18.9911 -18.3933 -18.3335 -18.3245 -18.3023 -17.8219 -17.8007
   -12.1300 -12.0905 -12.0676 -12.0555 -11.9079 -11.8877 -11.3698 -11.3307
   -10.2738 -10.2507 -10.1566 -10.1526 -10.1448 -10.1410  -8.6193  -8.5992
    -8.5714  -8.5542  -8.5386  -8.5101  -7.9032  -7.8942  -7.8806  -7.8717
    -7.8339  -7.8339  -7.8076  -7.7515  -7.5344  -7.4878  -6.6371  -6.6225
    -6.3824  -6.3098  -6.3076  -6.2914  -6.2287  -6.1933  -5.7440  -5.6855
    -5.5866  -5.5442  -4.7985  -4.7187  -4.6810  -4.6621  -3.9076  -3.8655
    -0.3624   0.8338   1.0228   1.0535   1.2553   1.3037   1.5047   1.5493
     1.6134   1.6857   1.8766   2.1193   2.1529   2.2401   2.2735   2.3045
     2.3721   2.4675   2.5362   2.5654   2.6210   2.6226

     the Fermi energy is    -0.8437 ev

!    total energy              =   -1133.81557402 Ry

     total all-electron energy =     -6753.491277 Ry
     estimated scf accuracy    <       0.00000004 Ry
     smearing contrib. (-TS)   =      -0.00000000 Ry
     internal energy E=F+TS    =   -1133.81557402 Ry

     The total energy is F=E-TS. E is the sum of the following terms:
     one-electron contribution =   -3920.96602488 Ry
     hartree contribution      =    1989.01940839 Ry
     xc contribution           =    -186.19706716 Ry
     ewald contribution        =    1343.69745282 Ry
     DFT-D3 Dispersion         =      -0.14052645 Ry
     one-center paw contrib.   =    -359.22881674 Ry

     total magnetization       =    12.00 Bohr mag/cell
     absolute magnetization    =    12.00 Bohr mag/cell

     convergence has been achieved in  12 iterations

     Writing output data file ./mytmp/Crdimer0.3-0.3.save/
 
     init_run     :     18.54s CPU     20.18s WALL (       1 calls)
     electrons    :    484.92s CPU    526.06s WALL (       1 calls)

     Called by init_run:
     wfcinit      :     13.59s CPU     14.58s WALL (       1 calls)
     potinit      :      1.49s CPU      1.60s WALL (       1 calls)
     hinit0       :      1.50s CPU      1.61s WALL (       1 calls)

     Called by electrons:
     c_bands      :    386.57s CPU    410.55s WALL (      12 calls)
     sum_band     :     69.92s CPU     79.83s WALL (      12 calls)
     v_of_rho     :      6.51s CPU      7.20s WALL (      13 calls)
     newd         :     15.74s CPU     21.85s WALL (      13 calls)
     PAW_pot      :      5.95s CPU      6.49s WALL (      13 calls)
     mix_rho      :      0.80s CPU      0.93s WALL (      12 calls)

     Called by c_bands:
     init_us_2    :      4.33s CPU      4.36s WALL (     750 calls)
     cegterg      :    376.03s CPU    399.92s WALL (     360 calls)

     Called by *egterg:
     cdiaghg      :     22.78s CPU     36.41s WALL (    2462 calls)
     h_psi        :    226.39s CPU    234.86s WALL (    2492 calls)
     s_psi        :     24.77s CPU     24.85s WALL (    2492 calls)
     g_psi        :      0.81s CPU      0.83s WALL (    2102 calls)

     Called by h_psi:
     h_psi:calbec :     26.70s CPU     27.44s WALL (    2492 calls)
     vloc_psi     :    172.23s CPU    179.79s WALL (    2492 calls)
     add_vuspsi   :     25.25s CPU     25.39s WALL (    2492 calls)

     General routines
     calbec       :     35.03s CPU     35.93s WALL (    2852 calls)
     fft          :      8.35s CPU     12.35s WALL (     319 calls)
     ffts         :      0.11s CPU      0.12s WALL (      50 calls)
     fftw         :    173.97s CPU    181.51s WALL (  228850 calls)
     interpolate  :      0.39s CPU      0.43s WALL (      26 calls)
 
     Parallel routines
     fft_scatt_xy :     27.51s CPU     28.52s WALL (  229219 calls)
     fft_scatt_yz :     72.07s CPU     79.59s WALL (  229219 calls)
 
     PWSCF        :   8m25.54s CPU   9m11.05s WALL

 
   This run was terminated on:   0:57:15  30Mar2021            

=------------------------------------------------------------------------------=
   JOB DONE.
=------------------------------------------------------------------------------=
