
     Program PWSCF v.6.7MaX starts on 29Mar2021 at 21:20:31 

     This program is part of the open-source Quantum ESPRESSO suite
     for quantum simulation of materials; please cite
         "P. Giannozzi et al., J. Phys.:Condens. Matter 21 395502 (2009);
         "P. Giannozzi et al., J. Phys.:Condens. Matter 29 465901 (2017);
          URL http://www.quantum-espresso.org", 
     in publications or presentations arising from this work. More details at
     http://www.quantum-espresso.org/quote

     Parallel version (MPI), running on    48 processors

     MPI processes distributed on     1 nodes
     R & G space division:  proc/nbgrp/npool/nimage =      48
     Reading input from Crdimer0.22-0.3.scf.in

     Current dimensions of program PWSCF are:
     Max number of different atomic species (ntypx) = 10
     Max number of k-points (npk) =  40000
     Max angular momentum in pseudopotentials (lmaxx) =  3
     file N.pbe-n-kjpaw_psl.1.0.0.UPF: wavefunction(s)  2S renormalized
     file Cr.pbe-spn-kjpaw_psl.1.0.0.UPF: wavefunction(s)  3S 3P 3D renormalized
     file Cr.pbe-spn-kjpaw_psl.1.0.0.UPF: wavefunction(s)  3S 3P 3D renormalized

     --------------------------------------------
     Parameters for DFT-D3 Dispersion Correction:
     --------------------------------------------
       Reference C6 values for interpolation: 

         atom   Coordination number   C6
         B          0.000           214.36
         B          0.971           150.74
         B          1.944           106.23
         B          2.913            62.89
         B          4.586            56.06
         N          0.000            50.54
         N          0.994            44.25
         N          2.014            39.35
         N          2.990            31.16
         Cr1        0.000          1381.48
         Cr1        1.827           571.38
         Cr1       10.619           306.69
         Cr2        0.000          1381.48
         Cr2        1.827           571.38
         Cr2       10.619           306.69

       Values used:

         atom   Coordination number  R0_AB[au]  C6      C8
         B          3.347            3.039     62.88   2505.72
         B          3.335            3.039     62.89   2506.00
         B          3.336            3.039     62.89   2505.98
         B          3.336            3.039     62.89   2506.00
         B          3.360            3.039     62.87   2505.34
         B          3.335            3.039     62.89   2506.01
         N          3.136            2.478     31.22    688.68
         N          3.136            2.478     31.22    688.68
         N          3.138            2.478     31.22    688.66
         N          3.136            2.478     31.22    688.68
         N          3.140            2.478     31.22    688.64
         N          3.135            2.478     31.22    688.69
         N          3.163            2.478     31.21    688.45
         N          3.134            2.478     31.22    688.70
         N          3.134            2.478     31.22    688.70
         B          3.344            3.039     62.89   2505.79
         B          3.335            3.039     62.89   2506.00
         B          3.335            3.039     62.89   2506.01
         B          3.360            3.039     62.87   2505.34
         B          3.347            3.039     62.88   2505.72
         B          3.344            3.039     62.89   2505.79
         N          3.163            2.478     31.21    688.45
         B          3.336            3.039     62.89   2505.98
         B          3.338            3.039     62.89   2505.93
         B          3.337            3.039     62.89   2505.96
         N          3.135            2.478     31.22    688.69
         N          3.136            2.478     31.22    688.68
         N          3.134            2.478     31.22    688.70
         N          3.134            2.478     31.22    688.70
         N          3.138            2.478     31.22    688.66
         N          3.136            2.478     31.22    688.68
         B          3.337            3.039     62.89   2505.96
         Cr1        0.104            3.252   1381.48 127494.74
         Cr2        0.104            3.252   1381.48 127494.74

         Molecular C6 ( Ry / a.u.^6 ) =     79164.68


     Subspace diagonalization in iterative solution of the eigenvalue problem:
     one sub-group per band group will be used
     scalapack distributed-memory algorithm (size of sub-group:  6*  6 procs)

 
     Parallelization info
     --------------------
     sticks:   dense  smooth     PW     G-vecs:    dense   smooth      PW
     Min         235      98     26                36277     9874    1408
     Max         236      99     27                36282     9883    1425
     Sum       11311    4741   1285              1741401   474235   68095
 


     bravais-lattice index     =            4
     lattice parameter (alat)  =      18.9275  a.u.
     unit-cell volume          =   10553.3021 (a.u.)^3
     number of atoms/cell      =           34
     number of atomic types    =            4
     number of electrons       =       156.00
     number of Kohn-Sham states=           94
     kinetic-energy cutoff     =      48.0000  Ry
     charge density cutoff     =     457.0000  Ry
     scf convergence threshold =      1.0E-07
     mixing beta               =       0.5000
     number of iterations used =            8  plain     mixing
     Exchange-correlation= SLA  PW   PBX  PBC
                           (   1   4   3   4   0   0   0)

     celldm(1)=  18.927497  celldm(2)=   0.000000  celldm(3)=   1.797125
     celldm(4)=   0.000000  celldm(5)=   0.000000  celldm(6)=   0.000000

     crystal axes: (cart. coord. in units of alat)
               a(1) = (   1.000000   0.000000   0.000000 )  
               a(2) = (  -0.500000   0.866025   0.000000 )  
               a(3) = (   0.000000   0.000000   1.797125 )  

     reciprocal axes: (cart. coord. in units 2 pi/alat)
               b(1) = (  1.000000  0.577350  0.000000 )  
               b(2) = (  0.000000  1.154701  0.000000 )  
               b(3) = (  0.000000  0.000000  0.556444 )  


     PseudoPot. # 1 for B  read from file:
     /home/sf05/q-e-qe-6.7MaX-Release/pseudo/B.pbe-n-kjpaw_psl.1.0.0.UPF
     MD5 check sum: d9c678ba5d3b2fd7b74e61139c9288d8
     Pseudo is Projector augmented-wave + core cor, Zval =  3.0
     Generated using "atomic" code by A. Dal Corso  v.5.1.2
     Shape of augmentation charge: PSQ
     Using radial grid of 1059 points,  4 beta functions with: 
                l(1) =   0
                l(2) =   0
                l(3) =   1
                l(4) =   1
     Q(r) pseudized with 0 coefficients 


     PseudoPot. # 2 for N  read from file:
     /home/sf05/q-e-qe-6.7MaX-Release/pseudo/N.pbe-n-kjpaw_psl.1.0.0.UPF
     MD5 check sum: e0e4e94a9c4025c5b51bd7d8793849bd
     Pseudo is Projector augmented-wave + core cor, Zval =  5.0
     Generated using "atomic" code by A. Dal Corso  v.5.1.2
     Shape of augmentation charge: PSQ
     Using radial grid of 1085 points,  4 beta functions with: 
                l(1) =   0
                l(2) =   0
                l(3) =   1
                l(4) =   1
     Q(r) pseudized with 0 coefficients 


     PseudoPot. # 3 for Cr read from file:
     /home/sf05/q-e-qe-6.7MaX-Release/pseudo/Cr.pbe-spn-kjpaw_psl.1.0.0.UPF
     MD5 check sum: 198f1a2427a48552563eee314eba32ba
     Pseudo is Projector augmented-wave + core cor, Zval = 14.0
     Generated using &quot;atomic&quot; code by A. Dal Corso  v.6.3
     Shape of augmentation charge: PSQ
     Using radial grid of 1183 points,  6 beta functions with: 
                l(1) =   0
                l(2) =   0
                l(3) =   1
                l(4) =   1
                l(5) =   2
                l(6) =   2
     Q(r) pseudized with 0 coefficients 


     PseudoPot. # 4 for Cr read from file:
     /home/sf05/q-e-qe-6.7MaX-Release/pseudo/Cr.pbe-spn-kjpaw_psl.1.0.0.UPF
     MD5 check sum: 198f1a2427a48552563eee314eba32ba
     Pseudo is Projector augmented-wave + core cor, Zval = 14.0
     Generated using &quot;atomic&quot; code by A. Dal Corso  v.6.3
     Shape of augmentation charge: PSQ
     Using radial grid of 1183 points,  6 beta functions with: 
                l(1) =   0
                l(2) =   0
                l(3) =   1
                l(4) =   1
                l(5) =   2
                l(6) =   2
     Q(r) pseudized with 0 coefficients 


     atomic species   valence    mass     pseudopotential
        B              3.00    10.81100     B ( 1.00)
        N              5.00    14.00674     N ( 1.00)
        Cr1           14.00    51.99610     Cr( 1.00)
        Cr2           14.00    51.99610     Cr( 1.00)

     Starting magnetic structure 
     atomic species   magnetization
        B            0.000
        N            0.000
        Cr1          1.000
        Cr2          1.000

     No symmetry found



   Cartesian axes

     site n.     atom                  positions (alat units)
         1           B   tau(   1) = (  -0.1250000   0.2165064   0.8985623  )
         2           B   tau(   2) = (   0.3750000   0.6495191   0.8985623  )
         3           B   tau(   3) = (   0.2500000   0.0000000   0.8985623  )
         4           B   tau(   4) = (   0.7500000   0.0000000   0.8985623  )
         5           B   tau(   5) = (   0.1250000   0.2165064   0.8985623  )
         6           B   tau(   6) = (  -0.3750000   0.6495191   0.8985623  )
         7           N   tau(   7) = (   0.7500005   0.2886748   0.8985623  )
         8           N   tau(   8) = (   0.3750005   0.5051812   0.8985623  )
         9           N   tau(   9) = (   0.3750005   0.0721685   0.8985623  )
        10           N   tau(  10) = (   0.6250005   0.0721685   0.8985623  )
        11           N   tau(  11) = (   0.2500005   0.2886748   0.8985623  )
        12           N   tau(  12) = (   0.6250005   0.5051812   0.8985623  )
        13           N   tau(  13) = (   0.0000005   0.2886748   0.8985623  )
        14           N   tau(  14) = (   0.2500005   0.7216875   0.8985623  )
        15           N   tau(  15) = (  -0.2499995   0.7216875   0.8985623  )
        16           B   tau(  16) = (   0.0000000   0.4330127   0.8985623  )
        17           B   tau(  17) = (   0.1250000   0.6495191   0.8985623  )
        18           B   tau(  18) = (  -0.1250000   0.6495191   0.8985623  )
        19           B   tau(  19) = (   0.3750000   0.2165064   0.8985623  )
        20           B   tau(  20) = (   0.6250000   0.2165064   0.8985623  )
        21           B   tau(  21) = (   0.5000000   0.4330127   0.8985623  )
        22           N   tau(  22) = (   0.5000005   0.2886748   0.8985623  )
        23           B   tau(  23) = (  -0.2500000   0.4330127   0.8985623  )
        24           B   tau(  24) = (   0.2500000   0.4330127   0.8985623  )
        25           B   tau(  25) = (   0.5000000   0.0000000   0.8985623  )
        26           N   tau(  26) = (  -0.1249995   0.5051812   0.8985623  )
        27           N   tau(  27) = (   0.1250005   0.5051812   0.8985623  )
        28           N   tau(  28) = (   0.0000005   0.7216875   0.8985623  )
        29           N   tau(  29) = (   0.5000005   0.7216875   0.8985623  )
        30           N   tau(  30) = (   0.1250005   0.0721685   0.8985623  )
        31           N   tau(  31) = (   0.8750005   0.0721685   0.8985623  )
        32           B   tau(  32) = (   0.0000000   0.0000000   0.8985623  )
        33           Cr1 tau(  33) = (   0.4700000   0.2598076   1.2040735  )
        34           Cr2 tau(  34) = (   0.0300000   0.2598076   1.2040735  )

     number of k points=    15  Gaussian smearing, width (Ry)=  0.0000
                       cart. coord. in units 2pi/alat
        k(    1) = (   0.1666667   0.2886751   0.0000000), wk =   0.0740741
        k(    2) = (   0.1666667  -0.4811252   0.0000000), wk =   0.0740741
        k(    3) = (   0.1666667  -0.0962250   0.0000000), wk =   0.0740741
        k(    4) = (  -0.5000000  -0.8660254   0.0000000), wk =   0.0370370
        k(    5) = (  -0.1666667   0.2886751   0.0000000), wk =   0.0740741
        k(    6) = (   0.3333333   0.0000000   0.0000000), wk =   0.0740741
        k(    7) = (  -0.1666667  -0.4811252   0.0000000), wk =   0.0740741
        k(    8) = (   0.5000000  -0.0962250   0.0000000), wk =   0.0740741
        k(    9) = (  -0.3333333  -0.3849002   0.0000000), wk =   0.0740741
        k(   10) = (   0.5000000   0.0962250   0.0000000), wk =   0.0740741
        k(   11) = (  -0.3333333   0.3849002   0.0000000), wk =   0.0740741
        k(   12) = (  -0.1666667  -0.0962250   0.0000000), wk =   0.0740741
        k(   13) = (  -0.0000000  -0.1924501   0.0000000), wk =   0.0740741
        k(   14) = (   0.5000000  -0.8660254   0.0000000), wk =   0.0370370
        k(   15) = (  -1.0000000   0.0000000   0.0000000), wk =   0.0370370

     Dense  grid:  1741401 G-vectors     FFT dimensions: ( 135, 135, 240)

     Smooth grid:   474235 G-vectors     FFT dimensions: (  90,  90, 160)

     Estimated max dynamical RAM per process >     218.62 MB

     Estimated total dynamical RAM >      10.25 GB
     Generating pointlists ...
     new r_m :   0.0595 (alat units)  1.1269 (a.u.) for type    1
     new r_m :   0.0595 (alat units)  1.1269 (a.u.) for type    2
     new r_m :   0.1272 (alat units)  2.4074 (a.u.) for type    3
     new r_m :   0.1272 (alat units)  2.4074 (a.u.) for type    4

     Initial potential from superposition of free atoms

     starting charge  155.99382, renormalised to  156.00000

     negative rho (up, down):  6.526E-03 4.655E-04
     Starting wfcs are  148 randomized atomic wfcs
     Checking if some PAW data can be deallocated... 

     total cpu time spent up to now is       20.0 secs

     Self-consistent Calculation

     iteration #  1     ecut=    48.00 Ry     beta= 0.50
     Davidson diagonalization with overlap
     ethr =  1.00E-02,  avg # of iterations =  2.9

     negative rho (up, down):  4.710E-03 2.948E-03

     total cpu time spent up to now is       59.6 secs

     total energy              =   -1130.76795004 Ry
     estimated scf accuracy    <      11.36857898 Ry

     total magnetization       =    12.00 Bohr mag/cell
     absolute magnetization    =    12.17 Bohr mag/cell

     iteration #  2     ecut=    48.00 Ry     beta= 0.50
     Davidson diagonalization with overlap
     ethr =  7.29E-03,  avg # of iterations =  2.6

     negative rho (up, down):  7.231E-03 1.118E-02

     total cpu time spent up to now is       96.4 secs

     total energy              =   -1133.06877115 Ry
     estimated scf accuracy    <       3.24453703 Ry

     total magnetization       =    12.00 Bohr mag/cell
     absolute magnetization    =    12.00 Bohr mag/cell

     iteration #  3     ecut=    48.00 Ry     beta= 0.50
     Davidson diagonalization with overlap
     ethr =  2.08E-03,  avg # of iterations =  6.7

     negative rho (up, down):  3.355E-03 5.795E-03

     total cpu time spent up to now is      133.2 secs

     total energy              =   -1133.62429406 Ry
     estimated scf accuracy    <       0.65981874 Ry

     total magnetization       =    12.00 Bohr mag/cell
     absolute magnetization    =    12.05 Bohr mag/cell

     iteration #  4     ecut=    48.00 Ry     beta= 0.50
     Davidson diagonalization with overlap
     ethr =  4.23E-04,  avg # of iterations =  7.8

     negative rho (up, down):  6.791E-03 1.389E-02

     total cpu time spent up to now is      170.4 secs

     total energy              =   -1133.79729422 Ry
     estimated scf accuracy    <       0.26023984 Ry

     total magnetization       =    12.00 Bohr mag/cell
     absolute magnetization    =    12.01 Bohr mag/cell

     iteration #  5     ecut=    48.00 Ry     beta= 0.50
     Davidson diagonalization with overlap
     ethr =  1.67E-04,  avg # of iterations =  7.9

     negative rho (up, down):  4.527E-03 1.001E-02

     total cpu time spent up to now is      207.5 secs

     total energy              =   -1133.80917933 Ry
     estimated scf accuracy    <       0.01870591 Ry

     total magnetization       =    12.00 Bohr mag/cell
     absolute magnetization    =    12.00 Bohr mag/cell

     iteration #  6     ecut=    48.00 Ry     beta= 0.50
     Davidson diagonalization with overlap
     c_bands:  1 eigenvalues not converged
     c_bands:  1 eigenvalues not converged
     c_bands:  1 eigenvalues not converged
     c_bands:  3 eigenvalues not converged
     c_bands:  1 eigenvalues not converged
     c_bands:  1 eigenvalues not converged
     c_bands:  2 eigenvalues not converged
     c_bands:  1 eigenvalues not converged
     c_bands:  3 eigenvalues not converged
     ethr =  1.20E-05,  avg # of iterations = 14.6

     negative rho (up, down):  3.349E-03 7.847E-03

     total cpu time spent up to now is      264.6 secs

     total energy              =   -1133.81212360 Ry
     estimated scf accuracy    <       0.00276319 Ry

     total magnetization       =    12.00 Bohr mag/cell
     absolute magnetization    =    12.00 Bohr mag/cell

     iteration #  7     ecut=    48.00 Ry     beta= 0.50
     Davidson diagonalization with overlap
     c_bands:  1 eigenvalues not converged
     c_bands:  1 eigenvalues not converged
     c_bands:  2 eigenvalues not converged
     c_bands:  1 eigenvalues not converged
     c_bands:  2 eigenvalues not converged
     ethr =  1.77E-06,  avg # of iterations = 10.7

     negative rho (up, down):  3.009E-03 7.524E-03

     total cpu time spent up to now is      310.2 secs

     total energy              =   -1133.81280088 Ry
     estimated scf accuracy    <       0.00048412 Ry

     total magnetization       =    12.00 Bohr mag/cell
     absolute magnetization    =    12.00 Bohr mag/cell

     iteration #  8     ecut=    48.00 Ry     beta= 0.50
     Davidson diagonalization with overlap
     ethr =  3.10E-07,  avg # of iterations =  5.1

     negative rho (up, down):  2.880E-03 7.332E-03

     total cpu time spent up to now is      345.3 secs

     total energy              =   -1133.81290988 Ry
     estimated scf accuracy    <       0.00007508 Ry

     total magnetization       =    12.00 Bohr mag/cell
     absolute magnetization    =    12.00 Bohr mag/cell

     iteration #  9     ecut=    48.00 Ry     beta= 0.50
     Davidson diagonalization with overlap
     ethr =  4.81E-08,  avg # of iterations =  2.1

     negative rho (up, down):  2.841E-03 7.301E-03

     total cpu time spent up to now is      379.0 secs

     total energy              =   -1133.81296791 Ry
     estimated scf accuracy    <       0.00000549 Ry

     total magnetization       =    12.00 Bohr mag/cell
     absolute magnetization    =    12.00 Bohr mag/cell

     iteration # 10     ecut=    48.00 Ry     beta= 0.50
     Davidson diagonalization with overlap
     ethr =  3.52E-09,  avg # of iterations =  5.0

     negative rho (up, down):  2.830E-03 7.299E-03

     total cpu time spent up to now is      421.3 secs

     total energy              =   -1133.81299297 Ry
     estimated scf accuracy    <       0.00000406 Ry

     total magnetization       =    12.00 Bohr mag/cell
     absolute magnetization    =    12.00 Bohr mag/cell

     iteration # 11     ecut=    48.00 Ry     beta= 0.50
     Davidson diagonalization with overlap
     ethr =  2.60E-09,  avg # of iterations =  2.5

     negative rho (up, down):  2.826E-03 7.301E-03

     total cpu time spent up to now is      458.0 secs

     total energy              =   -1133.81300510 Ry
     estimated scf accuracy    <       0.00000028 Ry

     total magnetization       =    12.00 Bohr mag/cell
     absolute magnetization    =    12.00 Bohr mag/cell

     iteration # 12     ecut=    48.00 Ry     beta= 0.50
     Davidson diagonalization with overlap
     ethr =  1.79E-10,  avg # of iterations =  3.8

     negative rho (up, down):  2.823E-03 7.306E-03
 
     Magnetic moment per site:
     atom:    1    charge:    0.8804    magn:    0.0007    constr:    0.0000
     atom:    2    charge:    0.8803    magn:    0.0002    constr:    0.0000
     atom:    3    charge:    0.8803    magn:    0.0006    constr:    0.0000
     atom:    4    charge:    0.8803    magn:    0.0004    constr:    0.0000
     atom:    5    charge:    0.8807    magn:    0.0007    constr:    0.0000
     atom:    6    charge:    0.8803    magn:    0.0001    constr:    0.0000
     atom:    7    charge:    2.8608    magn:    0.0029    constr:    0.0000
     atom:    8    charge:    2.8608    magn:    0.0018    constr:    0.0000
     atom:    9    charge:    2.8607    magn:    0.0042    constr:    0.0000
     atom:   10    charge:    2.8607    magn:    0.0025    constr:    0.0000
     atom:   11    charge:    2.8606    magn:    0.0077    constr:    0.0000
     atom:   12    charge:    2.8609    magn:    0.0012    constr:    0.0000
     atom:   13    charge:    2.8598    magn:    0.0118    constr:    0.0000
     atom:   14    charge:    2.8599    magn:    0.0002    constr:    0.0000
     atom:   15    charge:    2.8599    magn:    0.0002    constr:    0.0000
     atom:   16    charge:    0.8801    magn:    0.0008    constr:    0.0000
     atom:   17    charge:    0.8800    magn:    0.0002    constr:    0.0000
     atom:   18    charge:    0.8800    magn:    0.0001    constr:    0.0000
     atom:   19    charge:    0.8802    magn:    0.0007    constr:    0.0000
     atom:   20    charge:    0.8798    magn:    0.0007    constr:    0.0000
     atom:   21    charge:    0.8799    magn:    0.0008    constr:    0.0000
     atom:   22    charge:    2.8610    magn:    0.0118    constr:    0.0000
     atom:   23    charge:    0.8799    magn:    0.0002    constr:    0.0000
     atom:   24    charge:    0.8799    magn:    0.0002    constr:    0.0000
     atom:   25    charge:    0.8799    magn:    0.0002    constr:    0.0000
     atom:   26    charge:    2.8597    magn:    0.0012    constr:    0.0000
     atom:   27    charge:    2.8597    magn:    0.0018    constr:    0.0000
     atom:   28    charge:    2.8598    magn:    0.0003    constr:    0.0000
     atom:   29    charge:    2.8596    magn:    0.0003    constr:    0.0000
     atom:   30    charge:    2.8594    magn:    0.0042    constr:    0.0000
     atom:   31    charge:    2.8594    magn:    0.0025    constr:    0.0000
     atom:   32    charge:    0.8802    magn:    0.0002    constr:    0.0000
     atom:   33    charge:   12.7775    magn:    4.7698    constr:    0.0000
     atom:   34    charge:   12.7775    magn:    4.7698    constr:    0.0000

     total cpu time spent up to now is      491.6 secs

     End of self-consistent calculation

 ------ SPIN UP ------------


          k = 0.1667 0.2887 0.0000 ( 59267 PWs)   bands (ev):

   -72.4806 -72.4804 -43.9460 -43.9456 -43.9416 -43.9415 -43.9328 -43.9327
   -21.2788 -20.6944 -20.6857 -20.1461 -20.1180 -19.6208 -19.6125 -19.1309
   -18.7313 -18.7220 -18.4980 -18.4726 -18.2259 -18.1170 -18.1076 -17.8803
   -12.5152 -12.2430 -12.2263 -11.8522 -11.8479 -11.6887 -11.2242 -11.2181
   -10.4234 -10.3981 -10.1491 -10.1449  -9.6205  -9.6180  -8.8713  -8.8610
    -8.8483  -8.7984  -8.7909  -8.6265  -8.2277  -8.0811  -8.0546  -7.8632
    -7.8549  -7.4696  -7.4671  -7.3385  -7.2669  -7.2398  -7.2364  -6.9987
    -6.9781  -6.5957  -6.5734  -6.1848  -6.1833  -5.9036  -5.4492  -5.3275
    -5.3088  -5.2310  -4.9675  -4.9097  -4.5369  -4.3888  -4.3707  -4.0095
    -2.3462  -1.6043  -1.4432  -1.4400  -1.4238  -1.4028  -1.3822  -1.3729
    -1.3418  -1.3111  -1.2800  -1.2614   0.6048   0.7344   1.0876   1.1291
     1.2193   1.3993   1.4299   1.5553   1.5713   1.6634

          k = 0.1667-0.4811 0.0000 ( 59291 PWs)   bands (ev):

   -72.4806 -72.4804 -43.9460 -43.9456 -43.9416 -43.9415 -43.9328 -43.9327
   -21.1491 -20.9428 -20.7550 -20.1929 -19.8359 -19.4984 -19.3474 -19.2073
   -19.0450 -18.8121 -18.6734 -18.5735 -18.1814 -18.1182 -17.9540 -17.7545
   -12.3794 -12.1444 -12.0754 -11.9368 -11.7110 -11.6890 -11.5829 -10.9724
   -10.9215 -10.6549 -10.5532  -9.8913  -9.7238  -9.3667  -9.1417  -8.7018
    -8.6540  -8.5842  -8.4195  -8.3970  -8.1924  -8.1597  -8.0940  -8.0805
    -7.7199  -7.6540  -7.5252  -7.5042  -7.3902  -7.2014  -7.0981  -6.8929
    -6.6529  -6.4223  -6.2055  -6.1884  -6.0098  -5.9600  -5.8146  -5.7740
    -5.4820  -5.4374  -5.2382  -5.0697  -4.4773  -4.3756  -4.1242  -3.7971
    -2.3383  -1.6105  -1.4436  -1.4377  -1.4237  -1.3991  -1.3857  -1.3730
    -1.3419  -1.3112  -1.2794  -1.2618   0.5880   0.6157   1.0390   1.1375
     1.1570   1.2182   1.3282   1.7561   1.7897   1.8976

          k = 0.1667-0.0962 0.0000 ( 59226 PWs)   bands (ev):

   -72.4806 -72.4804 -43.9460 -43.9456 -43.9416 -43.9415 -43.9328 -43.9327
   -21.3451 -20.5689 -20.3755 -20.3718 -20.0191 -20.0132 -19.8360 -18.7600
   -18.7566 -18.4139 -18.3922 -18.3896 -18.3069 -18.2831 -18.1063 -18.1026
   -12.5433 -12.5288 -12.4378 -11.6110 -11.6083 -11.4652 -11.4428 -10.9559
   -10.9550  -9.9591  -9.9583  -9.7071  -9.4118  -9.3971  -9.2610  -9.2590
    -9.0722  -9.0705  -8.9564  -8.3534  -8.3530  -7.9353  -7.9268  -7.9182
    -7.8768  -7.8008  -7.6367  -7.6215  -7.1563  -7.1331  -6.9906  -6.9185
    -6.9164  -6.8807  -6.5607  -6.5598  -6.2880  -5.3740  -5.3619  -5.1741
    -5.0961  -4.8558  -4.8091  -4.7971  -4.6634  -4.6139  -4.3761  -4.3666
    -2.3541  -1.5979  -1.4436  -1.4415  -1.4239  -1.4075  -1.3797  -1.3723
    -1.3417  -1.3109  -1.2806  -1.2611   0.6241   0.8359   1.0573   1.1215
     1.2495   1.3317   1.3911   1.5589   1.5954   1.6330

          k =-0.5000-0.8660 0.0000 ( 59292 PWs)   bands (ev):

   -72.4806 -72.4804 -43.9460 -43.9456 -43.9416 -43.9415 -43.9328 -43.9327
   -21.0847 -21.0756 -20.4987 -20.4977 -19.4647 -19.4630 -19.4362 -19.4333
   -19.0250 -19.0182 -18.3639 -18.3619 -18.3451 -18.3301 -17.8226 -17.8212
   -12.1060 -12.1022 -12.0935 -12.0823 -11.9071 -11.9048 -11.3617 -11.3560
   -10.2658 -10.2644 -10.1655 -10.1639 -10.1579 -10.1570  -8.6156  -8.5872
    -8.5818  -8.5779  -8.5761  -8.5664  -7.8955  -7.8945  -7.8910  -7.8899
    -7.8507  -7.8501  -7.8044  -7.7972  -7.5221  -7.5150  -6.6414  -6.6395
    -6.4002  -6.3839  -6.3241  -6.3138  -6.2217  -6.2170  -5.7397  -5.7313
    -5.5777  -5.5712  -4.7690  -4.7644  -4.7287  -4.7006  -3.9110  -3.9065
    -2.2296  -1.7793  -1.4374  -1.4293  -1.4153  -1.3976  -1.3900  -1.3785
    -1.3582  -1.3457  -1.3086  -1.2817   0.9061   1.0182   1.0482   1.1730
     1.3130   1.3575   1.4546   1.5433   1.6051   1.6324

          k =-0.1667 0.2887 0.0000 ( 59267 PWs)   bands (ev):

   -72.4806 -72.4804 -43.9460 -43.9456 -43.9416 -43.9415 -43.9328 -43.9327
   -21.2788 -20.6944 -20.6857 -20.1461 -20.1180 -19.6208 -19.6125 -19.1309
   -18.7312 -18.7221 -18.4980 -18.4726 -18.2259 -18.1170 -18.1076 -17.8803
   -12.5152 -12.2430 -12.2263 -11.8522 -11.8480 -11.6887 -11.2241 -11.2181
   -10.4235 -10.3981 -10.1491 -10.1449  -9.6204  -9.6180  -8.8713  -8.8609
    -8.8482  -8.7984  -8.7910  -8.6265  -8.2278  -8.0811  -8.0546  -7.8632
    -7.8549  -7.4697  -7.4671  -7.3385  -7.2670  -7.2398  -7.2364  -6.9988
    -6.9782  -6.5957  -6.5734  -6.1848  -6.1833  -5.9036  -5.4493  -5.3275
    -5.3088  -5.2309  -4.9675  -4.9097  -4.5369  -4.3888  -4.3707  -4.0095
    -2.3462  -1.6043  -1.4432  -1.4400  -1.4238  -1.4028  -1.3822  -1.3729
    -1.3418  -1.3111  -1.2800  -1.2614   0.6048   0.7344   1.0877   1.1291
     1.2193   1.3992   1.4298   1.5552   1.5711   1.6634

          k = 0.3333 0.0000 0.0000 ( 59267 PWs)   bands (ev):

   -72.4806 -72.4804 -43.9460 -43.9456 -43.9416 -43.9415 -43.9328 -43.9327
   -21.2783 -20.7209 -20.6589 -20.1438 -20.1188 -19.6479 -19.5874 -19.1333
   -18.7487 -18.6983 -18.4996 -18.4739 -18.2211 -18.1412 -18.0904 -17.8795
   -12.5145 -12.2436 -12.2259 -11.8615 -11.8412 -11.6869 -11.2415 -11.2008
   -10.4224 -10.3977 -10.1636 -10.1314  -9.6266  -9.6105  -8.8730  -8.8596
    -8.8453  -8.8208  -8.7699  -8.6272  -8.2299  -8.1408  -7.9933  -7.8603
    -7.8549  -7.4763  -7.4609  -7.3363  -7.2652  -7.2494  -7.2259  -6.9996
    -6.9793  -6.6546  -6.5213  -6.1877  -6.1793  -5.9098  -5.4492  -5.3520
    -5.2721  -5.2313  -4.9688  -4.9137  -4.5279  -4.4218  -4.3487  -4.0091
    -2.2836  -1.7027  -1.4398  -1.4342  -1.4192  -1.4038  -1.3839  -1.3751
    -1.3521  -1.3260  -1.3093  -1.2810   0.9014   0.9676   1.1298   1.1800
     1.1950   1.3427   1.4308   1.5232   1.5477   1.6168

          k =-0.1667-0.4811 0.0000 ( 59291 PWs)   bands (ev):

   -72.4806 -72.4804 -43.9460 -43.9456 -43.9416 -43.9415 -43.9328 -43.9327
   -21.1491 -20.9428 -20.7550 -20.1929 -19.8359 -19.4984 -19.3474 -19.2073
   -19.0451 -18.8121 -18.6734 -18.5735 -18.1814 -18.1182 -17.9540 -17.7545
   -12.3795 -12.1443 -12.0754 -11.9368 -11.7110 -11.6889 -11.5830 -10.9724
   -10.9215 -10.6549 -10.5532  -9.8912  -9.7238  -9.3667  -9.1418  -8.7018
    -8.6539  -8.5842  -8.4194  -8.3970  -8.1923  -8.1597  -8.0940  -8.0805
    -7.7199  -7.6541  -7.5252  -7.5042  -7.3902  -7.2014  -7.0980  -6.8929
    -6.6529  -6.4223  -6.2055  -6.1884  -6.0098  -5.9599  -5.8145  -5.7740
    -5.4820  -5.4374  -5.2382  -5.0697  -4.4773  -4.3756  -4.1242  -3.7971
    -2.3383  -1.6105  -1.4436  -1.4377  -1.4237  -1.3991  -1.3857  -1.3730
    -1.3419  -1.3112  -1.2794  -1.2618   0.5880   0.6158   1.0390   1.1375
     1.1570   1.2182   1.3282   1.7561   1.7898   1.8976

          k = 0.5000-0.0962 0.0000 ( 59291 PWs)   bands (ev):

   -72.4806 -72.4804 -43.9460 -43.9456 -43.9416 -43.9415 -43.9329 -43.9327
   -21.1457 -20.9522 -20.7487 -20.1910 -19.8362 -19.4994 -19.3565 -19.2007
   -19.0462 -18.8113 -18.6623 -18.5814 -18.1684 -18.1370 -17.9494 -17.7545
   -12.3777 -12.1453 -12.0729 -11.9416 -11.7245 -11.6731 -11.5855 -10.9736
   -10.9181 -10.6526 -10.5561  -9.8890  -9.7245  -9.3678  -9.1411  -8.6892
    -8.6545  -8.5821  -8.4358  -8.4234  -8.1897  -8.1339  -8.1084  -8.0670
    -7.7153  -7.6549  -7.5240  -7.5059  -7.3849  -7.2027  -7.0991  -6.8933
    -6.6534  -6.4255  -6.2339  -6.1877  -5.9886  -5.9594  -5.8136  -5.7773
    -5.4833  -5.4309  -5.2168  -5.0880  -4.4528  -4.4097  -4.1152  -3.7982
    -2.2297  -1.7791  -1.4373  -1.4294  -1.4154  -1.3990  -1.3894  -1.3784
    -1.3582  -1.3457  -1.3086  -1.2817   0.8632   1.0010   1.0655   1.1228
     1.2892   1.3477   1.4064   1.4555   1.5886   1.7757

          k =-0.3333-0.3849 0.0000 ( 59291 PWs)   bands (ev):

   -72.4806 -72.4804 -43.9460 -43.9456 -43.9416 -43.9415 -43.9328 -43.9327
   -21.1469 -20.9490 -20.7510 -20.1909 -19.8380 -19.4979 -19.3505 -19.2039
   -19.0505 -18.8090 -18.6640 -18.5804 -18.1709 -18.1338 -17.9496 -17.7547
   -12.3788 -12.1425 -12.0760 -11.9396 -11.7125 -11.6867 -11.5845 -10.9730
   -10.9185 -10.6519 -10.5569  -9.8894  -9.7246  -9.3679  -9.1419  -8.6933
    -8.6530  -8.5838  -8.4237  -8.4192  -8.1917  -8.1428  -8.0940  -8.0831
    -7.7161  -7.6525  -7.5319  -7.4986  -7.3842  -7.2029  -7.0998  -6.8993
    -6.6511  -6.4206  -6.2157  -6.1907  -5.9992  -5.9579  -5.8138  -5.7899
    -5.4831  -5.4243  -5.2177  -5.0879  -4.4553  -4.4071  -4.1149  -3.7983
    -2.2734  -1.7121  -1.4375  -1.4347  -1.4186  -1.3983  -1.3880  -1.3767
    -1.3522  -1.3263  -1.3093  -1.2804   0.7602   0.9078   1.0751   1.1405
     1.2137   1.2335   1.3021   1.5448   1.7114   1.8458

          k = 0.5000 0.0962 0.0000 ( 59291 PWs)   bands (ev):

   -72.4806 -72.4804 -43.9460 -43.9456 -43.9416 -43.9415 -43.9329 -43.9327
   -21.1457 -20.9522 -20.7487 -20.1910 -19.8362 -19.4994 -19.3565 -19.2007
   -19.0462 -18.8113 -18.6623 -18.5814 -18.1684 -18.1370 -17.9494 -17.7545
   -12.3777 -12.1453 -12.0728 -11.9416 -11.7245 -11.6730 -11.5855 -10.9736
   -10.9181 -10.6526 -10.5562  -9.8890  -9.7245  -9.3678  -9.1411  -8.6892
    -8.6545  -8.5821  -8.4358  -8.4234  -8.1897  -8.1339  -8.1084  -8.0670
    -7.7153  -7.6549  -7.5240  -7.5060  -7.3849  -7.2028  -7.0991  -6.8933
    -6.6533  -6.4255  -6.2339  -6.1876  -5.9886  -5.9594  -5.8137  -5.7773
    -5.4833  -5.4309  -5.2167  -5.0880  -4.4528  -4.4097  -4.1152  -3.7982
    -2.2297  -1.7791  -1.4373  -1.4294  -1.4154  -1.3991  -1.3894  -1.3784
    -1.3582  -1.3457  -1.3086  -1.2817   0.8632   1.0011   1.0656   1.1228
     1.2892   1.3478   1.4064   1.4555   1.5886   1.7757

          k =-0.3333 0.3849 0.0000 ( 59291 PWs)   bands (ev):

   -72.4806 -72.4804 -43.9460 -43.9456 -43.9416 -43.9415 -43.9328 -43.9327
   -21.1469 -20.9490 -20.7510 -20.1909 -19.8380 -19.4979 -19.3505 -19.2039
   -19.0505 -18.8090 -18.6640 -18.5804 -18.1709 -18.1338 -17.9496 -17.7547
   -12.3787 -12.1425 -12.0760 -11.9396 -11.7125 -11.6868 -11.5844 -10.9730
   -10.9185 -10.6519 -10.5569  -9.8894  -9.7245  -9.3678  -9.1419  -8.6933
    -8.6531  -8.5838  -8.4237  -8.4192  -8.1918  -8.1428  -8.0939  -8.0832
    -7.7160  -7.6525  -7.5319  -7.4985  -7.3842  -7.2029  -7.0999  -6.8993
    -6.6511  -6.4206  -6.2157  -6.1907  -5.9992  -5.9580  -5.8137  -5.7899
    -5.4830  -5.4243  -5.2177  -5.0879  -4.4553  -4.4071  -4.1149  -3.7983
    -2.2734  -1.7121  -1.4375  -1.4347  -1.4186  -1.3983  -1.3880  -1.3767
    -1.3522  -1.3263  -1.3093  -1.2804   0.7603   0.9078   1.0751   1.1405
     1.2137   1.2335   1.3021   1.5448   1.7114   1.8458

          k =-0.1667-0.0962 0.0000 ( 59226 PWs)   bands (ev):

   -72.4806 -72.4804 -43.9460 -43.9456 -43.9416 -43.9414 -43.9328 -43.9327
   -21.3451 -20.5689 -20.3755 -20.3718 -20.0191 -20.0132 -19.8360 -18.7600
   -18.7566 -18.4139 -18.3922 -18.3896 -18.3069 -18.2831 -18.1063 -18.1026
   -12.5433 -12.5288 -12.4377 -11.6110 -11.6083 -11.4652 -11.4428 -10.9559
   -10.9550  -9.9591  -9.9584  -9.7070  -9.4117  -9.3971  -9.2610  -9.2591
    -9.0722  -9.0705  -8.9564  -8.3534  -8.3531  -7.9352  -7.9267  -7.9182
    -7.8767  -7.8008  -7.6367  -7.6215  -7.1563  -7.1331  -6.9906  -6.9185
    -6.9163  -6.8807  -6.5607  -6.5598  -6.2881  -5.3740  -5.3619  -5.1740
    -5.0962  -4.8558  -4.8091  -4.7971  -4.6634  -4.6139  -4.3761  -4.3666
    -2.3541  -1.5979  -1.4436  -1.4415  -1.4239  -1.4075  -1.3797  -1.3723
    -1.3417  -1.3109  -1.2806  -1.2611   0.6241   0.8359   1.0573   1.1215
     1.2495   1.3317   1.3911   1.5589   1.5955   1.6331

          k =-0.0000-0.1925 0.0000 ( 59226 PWs)   bands (ev):

   -72.4806 -72.4804 -43.9460 -43.9456 -43.9416 -43.9415 -43.9328 -43.9327
   -21.3453 -20.5622 -20.3965 -20.3616 -20.0242 -19.9989 -19.8409 -18.7701
   -18.7409 -18.4475 -18.3907 -18.3784 -18.2839 -18.2838 -18.1209 -18.0950
   -12.5442 -12.5285 -12.4371 -11.6206 -11.5997 -11.4618 -11.4435 -10.9601
   -10.9528  -9.9658  -9.9519  -9.7074  -9.4093  -9.3974  -9.2633  -9.2577
    -9.0723  -9.0712  -8.9570  -8.3572  -8.3480  -7.9363  -7.9271  -7.8921
    -7.8733  -7.8029  -7.7012  -7.5973  -7.1606  -7.0981  -6.9887  -6.9243
    -6.9126  -6.8976  -6.5661  -6.5533  -6.2889  -5.3970  -5.3240  -5.1743
    -5.0959  -4.9167  -4.8157  -4.7678  -4.6234  -4.6156  -4.4109  -4.3466
    -2.3790  -1.5633  -1.4468  -1.4424  -1.4258  -1.4069  -1.3791  -1.3716
    -1.3371  -1.3116  -1.2789  -1.2138   0.4633   0.7656   1.0399   1.0933
     1.2092   1.3755   1.4013   1.5853   1.6396   1.7259

          k = 0.5000-0.8660 0.0000 ( 59292 PWs)   bands (ev):

   -72.4806 -72.4804 -43.9460 -43.9456 -43.9416 -43.9415 -43.9328 -43.9327
   -21.0847 -21.0756 -20.4987 -20.4977 -19.4647 -19.4630 -19.4362 -19.4333
   -19.0249 -19.0183 -18.3639 -18.3619 -18.3451 -18.3301 -17.8226 -17.8212
   -12.1061 -12.1022 -12.0934 -12.0824 -11.9071 -11.9048 -11.3616 -11.3560
   -10.2659 -10.2644 -10.1655 -10.1639 -10.1580 -10.1570  -8.6156  -8.5872
    -8.5817  -8.5779  -8.5759  -8.5665  -7.8955  -7.8945  -7.8910  -7.8899
    -7.8508  -7.8502  -7.8044  -7.7972  -7.5221  -7.5150  -6.6413  -6.6395
    -6.4002  -6.3839  -6.3241  -6.3138  -6.2216  -6.2170  -5.7397  -5.7313
    -5.5778  -5.5713  -4.7690  -4.7644  -4.7287  -4.7007  -3.9110  -3.9065
    -2.2296  -1.7793  -1.4374  -1.4293  -1.4153  -1.3976  -1.3900  -1.3785
    -1.3582  -1.3457  -1.3086  -1.2817   0.9061   1.0182   1.0482   1.1730
     1.3130   1.3575   1.4545   1.5433   1.6051   1.6323

          k =-1.0000 0.0000 0.0000 ( 59292 PWs)   bands (ev):

   -72.4806 -72.4804 -43.9460 -43.9457 -43.9416 -43.9415 -43.9328 -43.9327
   -21.1093 -21.0475 -20.5172 -20.4848 -19.4849 -19.4375 -19.4335 -19.4328
   -19.0494 -18.9981 -18.4169 -18.3452 -18.3319 -18.3066 -17.8366 -17.8098
   -12.1450 -12.0999 -12.0743 -12.0605 -11.9191 -11.8937 -11.3818 -11.3376
   -10.2892 -10.2589 -10.1673 -10.1608 -10.1527 -10.1479  -8.6675  -8.6134
    -8.5809  -8.5612  -8.5437  -8.5191  -7.9181  -7.9071  -7.8886  -7.8782
    -7.8614  -7.8407  -7.8365  -7.7650  -7.5470  -7.4934  -6.6481  -6.6293
    -6.4389  -6.3307  -6.3233  -6.3018  -6.2415  -6.2006  -5.7872  -5.7003
    -5.5994  -5.5500  -4.8558  -4.7470  -4.6911  -4.6676  -3.9435  -3.8792
    -2.3645  -1.5734  -1.4473  -1.4379  -1.4258  -1.3993  -1.3849  -1.3706
    -1.3373  -1.3120  -1.2776  -1.2149   0.4394   0.5554   1.0357   1.1057
     1.1931   1.3643   1.5448   1.5904   1.6085   1.8574

 ------ SPIN DOWN ----------


          k = 0.1667 0.2887 0.0000 ( 59267 PWs)   bands (ev):

   -68.1107 -68.1105 -39.6132 -39.6128 -39.6032 -39.6031 -39.6000 -39.5998
   -21.2714 -20.6865 -20.6794 -20.1373 -20.1126 -19.6131 -19.6064 -19.1237
   -18.7219 -18.7152 -18.4896 -18.4670 -18.2175 -18.1097 -18.1026 -17.8732
   -12.5103 -12.2371 -12.2224 -11.8475 -11.8438 -11.6846 -11.2189 -11.2136
   -10.4180 -10.3932 -10.1436 -10.1402  -9.6154  -9.6134  -8.8580  -8.8434
    -8.8404  -8.7934  -8.7869  -8.6221  -8.2234  -8.0516  -8.0337  -7.8582
    -7.8508  -7.4638  -7.4619  -7.3043  -7.2539  -7.2350  -7.2322  -6.9934
    -6.9747  -6.5706  -6.5551  -6.1799  -6.1788  -5.8809  -5.4440  -5.2982
    -5.2877  -5.2262  -4.9403  -4.8969  -4.5134  -4.3674  -4.3569  -3.9906
    -0.2748   0.6784   1.0355   1.1823   1.3074   1.3906   1.4433   1.5145
     1.5533   1.8102   1.8787   2.1145   2.1905   2.2440   2.2949   2.3598
     2.4069   2.5020   2.5383   2.5539   2.5739   2.6256

          k = 0.1667-0.4811 0.0000 ( 59291 PWs)   bands (ev):

   -68.1107 -68.1105 -39.6132 -39.6128 -39.6032 -39.6031 -39.6000 -39.5998
   -21.1409 -20.9369 -20.7476 -20.1854 -19.8289 -19.4913 -19.3406 -19.1996
   -19.0382 -18.8048 -18.6637 -18.5683 -18.1712 -18.1146 -17.9465 -17.7473
   -12.3744 -12.1394 -12.0709 -11.9324 -11.7070 -11.6841 -11.5784 -10.9674
   -10.9160 -10.6492 -10.5489  -9.8856  -9.7192  -9.3615  -9.1370  -8.6690
    -8.6490  -8.5787  -8.4152  -8.3808  -8.1877  -8.1322  -8.0893  -8.0763
    -7.7147  -7.6495  -7.5204  -7.5003  -7.3639  -7.1962  -7.0937  -6.8703
    -6.6473  -6.3999  -6.1855  -6.1831  -5.9847  -5.9544  -5.8097  -5.7540
    -5.4774  -5.4124  -5.2088  -5.0571  -4.4480  -4.3668  -4.1027  -3.7787
    -0.2374   0.6512   0.9968   1.0922   1.1231   1.2554   1.3546   1.7572
     1.8247   1.8709   2.0170   2.1155   2.2354   2.2760   2.3008   2.3434
     2.4133   2.4353   2.4999   2.5116   2.5638   2.6401

          k = 0.1667-0.0962 0.0000 ( 59226 PWs)   bands (ev):

   -68.1107 -68.1105 -39.6132 -39.6128 -39.6032 -39.6031 -39.6000 -39.5998
   -21.3379 -20.5604 -20.3685 -20.3659 -20.0108 -20.0065 -19.8303 -18.7513
   -18.7489 -18.4052 -18.3839 -18.3834 -18.2988 -18.2774 -18.0998 -18.0971
   -12.5376 -12.5245 -12.4332 -11.6063 -11.6041 -11.4593 -11.4392 -10.9510
   -10.9504  -9.9541  -9.9534  -9.7017  -9.4062  -9.3928  -9.2555  -9.2540
    -9.0676  -9.0661  -8.9299  -8.3479  -8.3477  -7.9301  -7.9227  -7.8853
    -7.8697  -7.7965  -7.6131  -7.6044  -7.1265  -7.1127  -6.9857  -6.9139
    -6.9123  -6.8657  -6.5560  -6.5554  -6.2835  -5.3454  -5.3386  -5.1691
    -5.0912  -4.8293  -4.7922  -4.7710  -4.6400  -4.6009  -4.3571  -4.3516
    -0.3092   0.7093   1.0414   1.0854   1.2551   1.4513   1.4767   1.5510
     1.7594   1.8790   1.9737   2.0354   2.0802   2.1411   2.2978   2.3663
     2.4465   2.4861   2.4987   2.5410   2.5741   2.6159

          k =-0.5000-0.8660 0.0000 ( 59292 PWs)   bands (ev):

   -68.1107 -68.1105 -39.6132 -39.6128 -39.6032 -39.6031 -39.6000 -39.5998
   -21.0765 -21.0690 -20.4919 -20.4911 -19.4553 -19.4538 -19.4299 -19.4282
   -19.0174 -19.0123 -18.3549 -18.3534 -18.3376 -18.3259 -17.8153 -17.8145
   -12.1000 -12.0967 -12.0888 -12.0789 -11.9028 -11.9009 -11.3566 -11.3515
   -10.2605 -10.2593 -10.1598 -10.1586 -10.1534 -10.1525  -8.5843  -8.5765
    -8.5726  -8.5711  -8.5637  -8.5622  -7.8902  -7.8893  -7.8864  -7.8855
    -7.8456  -7.8452  -7.7818  -7.7769  -7.5174  -7.5112  -6.6361  -6.6349
    -6.3610  -6.3517  -6.3083  -6.3022  -6.2164  -6.2123  -5.7186  -5.7127
    -5.5724  -5.5670  -4.7414  -4.7381  -4.7093  -4.6903  -3.8911  -3.8887
    -0.1000   0.2803   1.0089   1.0497   1.3928   1.4358   1.4843   1.5421
     1.7764   1.7777   2.0443   2.0730   2.1867   2.2366   2.3877   2.4087
     2.4191   2.4454   2.5267   2.5414   2.5638   2.6039

          k =-0.1667 0.2887 0.0000 ( 59267 PWs)   bands (ev):

   -68.1107 -68.1105 -39.6132 -39.6128 -39.6032 -39.6031 -39.6000 -39.5998
   -21.2714 -20.6865 -20.6794 -20.1373 -20.1126 -19.6131 -19.6064 -19.1237
   -18.7219 -18.7152 -18.4896 -18.4670 -18.2175 -18.1097 -18.1026 -17.8732
   -12.5103 -12.2371 -12.2224 -11.8475 -11.8438 -11.6846 -11.2188 -11.2136
   -10.4180 -10.3931 -10.1436 -10.1402  -9.6154  -9.6134  -8.8580  -8.8433
    -8.8404  -8.7934  -8.7870  -8.6221  -8.2235  -8.0515  -8.0337  -7.8582
    -7.8508  -7.4638  -7.4619  -7.3043  -7.2539  -7.2350  -7.2322  -6.9934
    -6.9748  -6.5706  -6.5551  -6.1799  -6.1788  -5.8809  -5.4441  -5.2982
    -5.2878  -5.2261  -4.9403  -4.8968  -4.5135  -4.3674  -4.3569  -3.9906
    -0.2748   0.6784   1.0355   1.1822   1.3074   1.3906   1.4432   1.5145
     1.5533   1.8102   1.8786   2.1145   2.1904   2.2439   2.2949   2.3598
     2.4070   2.5018   2.5384   2.5537   2.5741   2.6262

          k = 0.3333 0.0000 0.0000 ( 59267 PWs)   bands (ev):

   -68.1107 -68.1105 -39.6132 -39.6128 -39.6032 -39.6031 -39.6000 -39.5998
   -21.2710 -20.7096 -20.6561 -20.1350 -20.1138 -19.6365 -19.5845 -19.1255
   -18.7374 -18.6952 -18.4902 -18.4685 -18.2139 -18.1301 -18.0873 -17.8727
   -12.5097 -12.2374 -12.2221 -11.8560 -11.8373 -11.6831 -11.2349 -11.1977
   -10.4171 -10.3928 -10.1563 -10.1283  -9.6208  -9.6069  -8.8578  -8.8471
    -8.8353  -8.8135  -8.7678  -8.6227  -8.2251  -8.0968  -7.9878  -7.8557
    -7.8510  -7.4695  -7.4566  -7.3022  -7.2534  -7.2437  -7.2229  -6.9937
    -6.9760  -6.6143  -6.5153  -6.1826  -6.1753  -5.8843  -5.4440  -5.3185
    -5.2609  -5.2264  -4.9397  -4.9002  -4.5081  -4.3926  -4.3383  -3.9903
    -0.2117   0.4564   1.0417   1.1526   1.3384   1.4590   1.4696   1.5221
     1.5789   1.7927   2.0562   2.1313   2.2311   2.2582   2.2816   2.4106
     2.4528   2.4583   2.5067   2.5541   2.5750   2.6247

          k =-0.1667-0.4811 0.0000 ( 59291 PWs)   bands (ev):

   -68.1107 -68.1105 -39.6132 -39.6128 -39.6032 -39.6031 -39.6000 -39.5998
   -21.1409 -20.9369 -20.7476 -20.1854 -19.8289 -19.4913 -19.3406 -19.1996
   -19.0382 -18.8048 -18.6637 -18.5683 -18.1712 -18.1146 -17.9466 -17.7473
   -12.3744 -12.1393 -12.0709 -11.9324 -11.7070 -11.6841 -11.5785 -10.9674
   -10.9160 -10.6492 -10.5489  -9.8856  -9.7192  -9.3616  -9.1370  -8.6690
    -8.6490  -8.5787  -8.4152  -8.3808  -8.1877  -8.1322  -8.0894  -8.0763
    -7.7147  -7.6496  -7.5203  -7.5003  -7.3639  -7.1962  -7.0937  -6.8703
    -6.6473  -6.3999  -6.1855  -6.1831  -5.9847  -5.9544  -5.8096  -5.7540
    -5.4775  -5.4124  -5.2088  -5.0571  -4.4480  -4.3668  -4.1027  -3.7787
    -0.2374   0.6512   0.9969   1.0922   1.1231   1.2554   1.3546   1.7573
     1.8247   1.8709   2.0170   2.1154   2.2353   2.2759   2.3003   2.3431
     2.4128   2.4351   2.4997   2.5115   2.5636   2.6425

          k = 0.5000-0.0962 0.0000 ( 59291 PWs)   bands (ev):

   -68.1107 -68.1105 -39.6132 -39.6128 -39.6032 -39.6031 -39.6000 -39.5998
   -21.1384 -20.9440 -20.7429 -20.1840 -19.8292 -19.4920 -19.3474 -19.1948
   -19.0389 -18.8041 -18.6555 -18.5743 -18.1609 -18.1290 -17.9432 -17.7474
   -12.3730 -12.1401 -12.0688 -11.9363 -11.7187 -11.6704 -11.5805 -10.9684
   -10.9133 -10.6473 -10.5512  -9.8838  -9.7198  -9.3625  -9.1365  -8.6620
    -8.6492  -8.5771  -8.4196  -8.4019  -8.1856  -8.1177  -8.1019  -8.0645
    -7.7110  -7.6502  -7.5193  -7.5018  -7.3607  -7.1973  -7.0945  -6.8705
    -6.6477  -6.4016  -6.2008  -6.1832  -5.9730  -5.9541  -5.8089  -5.7557
    -5.4785  -5.4091  -5.1959  -5.0680  -4.4318  -4.3884  -4.0977  -3.7792
    -0.1022   0.2866   0.9929   1.0950   1.1248   1.2814   1.6033   1.7221
     1.7932   2.0201   2.0458   2.1427   2.1865   2.2703   2.3279   2.3532
     2.4446   2.4813   2.5156   2.5509   2.5713   2.6179

          k =-0.3333-0.3849 0.0000 ( 59291 PWs)   bands (ev):

   -68.1107 -68.1105 -39.6132 -39.6128 -39.6032 -39.6031 -39.6000 -39.5998
   -21.1393 -20.9416 -20.7446 -20.1839 -19.8305 -19.4909 -19.3430 -19.1972
   -19.0421 -18.8024 -18.6567 -18.5736 -18.1627 -18.1268 -17.9434 -17.7475
   -12.3739 -12.1379 -12.0713 -11.9348 -11.7084 -11.6822 -11.5796 -10.9679
   -10.9136 -10.6468 -10.5518  -9.8841  -9.7198  -9.3625  -9.1370  -8.6641
    -8.6483  -8.5784  -8.4166  -8.3947  -8.1873  -8.1229  -8.0892  -8.0784
    -7.7117  -7.6483  -7.5261  -7.4955  -7.3603  -7.1975  -7.0950  -6.8739
    -6.6458  -6.3989  -6.1907  -6.1851  -5.9789  -5.9529  -5.8091  -5.7628
    -5.4784  -5.4056  -5.1965  -5.0678  -4.4333  -4.3869  -4.0975  -3.7793
    -0.1608   0.4063   0.9944   1.0621   1.1834   1.2541   1.4783   1.7659
     1.9121   1.9440   2.0458   2.0644   2.1898   2.2656   2.3122   2.3879
     2.4134   2.4659   2.5112   2.5440   2.5753   2.6371

          k = 0.5000 0.0962 0.0000 ( 59291 PWs)   bands (ev):

   -68.1107 -68.1105 -39.6132 -39.6128 -39.6032 -39.6031 -39.6000 -39.5998
   -21.1384 -20.9440 -20.7429 -20.1840 -19.8292 -19.4920 -19.3474 -19.1948
   -19.0389 -18.8041 -18.6555 -18.5743 -18.1609 -18.1290 -17.9432 -17.7473
   -12.3730 -12.1401 -12.0688 -11.9364 -11.7187 -11.6704 -11.5805 -10.9684
   -10.9133 -10.6474 -10.5513  -9.8838  -9.7198  -9.3624  -9.1364  -8.6620
    -8.6492  -8.5771  -8.4196  -8.4019  -8.1856  -8.1177  -8.1019  -8.0645
    -7.7110  -7.6502  -7.5194  -7.5018  -7.3607  -7.1974  -7.0945  -6.8705
    -6.6476  -6.4016  -6.2008  -6.1831  -5.9730  -5.9541  -5.8090  -5.7557
    -5.4786  -5.4091  -5.1959  -5.0680  -4.4318  -4.3884  -4.0977  -3.7792
    -0.1022   0.2866   0.9929   1.0950   1.1248   1.2814   1.6033   1.7221
     1.7932   2.0201   2.0457   2.1427   2.1865   2.2704   2.3279   2.3533
     2.4445   2.4814   2.5155   2.5509   2.5710   2.6181

          k =-0.3333 0.3849 0.0000 ( 59291 PWs)   bands (ev):

   -68.1107 -68.1105 -39.6132 -39.6128 -39.6032 -39.6031 -39.6000 -39.5998
   -21.1393 -20.9416 -20.7446 -20.1839 -19.8305 -19.4909 -19.3430 -19.1972
   -19.0421 -18.8024 -18.6567 -18.5735 -18.1627 -18.1268 -17.9434 -17.7475
   -12.3738 -12.1379 -12.0713 -11.9348 -11.7084 -11.6822 -11.5796 -10.9679
   -10.9136 -10.6468 -10.5518  -9.8841  -9.7198  -9.3625  -9.1370  -8.6641
    -8.6483  -8.5783  -8.4167  -8.3947  -8.1873  -8.1229  -8.0892  -8.0785
    -7.7116  -7.6483  -7.5261  -7.4955  -7.3603  -7.1974  -7.0951  -6.8739
    -6.6459  -6.3989  -6.1907  -6.1852  -5.9789  -5.9530  -5.8090  -5.7628
    -5.4783  -5.4055  -5.1965  -5.0678  -4.4333  -4.3869  -4.0975  -3.7793
    -0.1608   0.4063   0.9944   1.0621   1.1834   1.2541   1.4783   1.7659
     1.9122   1.9439   2.0457   2.0644   2.1900   2.2658   2.3123   2.3877
     2.4137   2.4656   2.5113   2.5441   2.5763   2.6308

          k =-0.1667-0.0962 0.0000 ( 59226 PWs)   bands (ev):

   -68.1107 -68.1105 -39.6132 -39.6128 -39.6032 -39.6031 -39.6000 -39.5998
   -21.3379 -20.5604 -20.3685 -20.3659 -20.0108 -20.0065 -19.8303 -18.7513
   -18.7489 -18.4052 -18.3839 -18.3834 -18.2988 -18.2774 -18.0998 -18.0971
   -12.5376 -12.5245 -12.4332 -11.6063 -11.6041 -11.4593 -11.4392 -10.9510
   -10.9504  -9.9541  -9.9535  -9.7016  -9.4062  -9.3928  -9.2555  -9.2540
    -9.0676  -9.0661  -8.9299  -8.3479  -8.3477  -7.9301  -7.9226  -7.8853
    -7.8696  -7.7966  -7.6131  -7.6044  -7.1265  -7.1127  -6.9857  -6.9139
    -6.9122  -6.8657  -6.5560  -6.5554  -6.2836  -5.3454  -5.3386  -5.1690
    -5.0913  -4.8293  -4.7922  -4.7710  -4.6400  -4.6009  -4.3571  -4.3516
    -0.3092   0.7093   1.0414   1.0854   1.2552   1.4513   1.4767   1.5510
     1.7593   1.8791   1.9737   2.0355   2.0802   2.1412   2.2978   2.3663
     2.4467   2.4861   2.4986   2.5411   2.5745   2.6160

          k =-0.0000-0.1925 0.0000 ( 59226 PWs)   bands (ev):

   -68.1107 -68.1105 -39.6132 -39.6128 -39.6032 -39.6031 -39.6000 -39.5998
   -21.3380 -20.5554 -20.3864 -20.3561 -20.0167 -19.9937 -19.8340 -18.7610
   -18.7352 -18.4313 -18.3849 -18.3723 -18.2805 -18.2786 -18.1126 -18.0894
   -12.5382 -12.5245 -12.4327 -11.6150 -11.5962 -11.4562 -11.4401 -10.9548
   -10.9482  -9.9600  -9.9477  -9.7020  -9.4039  -9.3934  -9.2577  -9.2525
    -9.0677  -9.0668  -8.9302  -8.3517  -8.3430  -7.9309  -7.9232  -7.8741
    -7.8636  -7.7982  -7.6554  -7.5848  -7.1349  -7.0865  -6.9842  -6.9191
    -6.9086  -6.8755  -6.5611  -6.5495  -6.2842  -5.3647  -5.3113  -5.1692
    -5.0910  -4.8652  -4.7969  -4.7536  -4.6137  -4.6033  -4.3825  -4.3347
    -0.3316   0.8451   1.0416   1.1020   1.2441   1.4139   1.4755   1.4910
     1.7583   1.8786   1.8823   1.9591   2.0280   2.2129   2.3115   2.3180
     2.3578   2.4920   2.5501   2.5627   2.6205   2.6987

          k = 0.5000-0.8660 0.0000 ( 59292 PWs)   bands (ev):

   -68.1107 -68.1105 -39.6132 -39.6128 -39.6032 -39.6031 -39.6000 -39.5998
   -21.0765 -21.0690 -20.4919 -20.4911 -19.4553 -19.4538 -19.4299 -19.4282
   -19.0173 -19.0124 -18.3549 -18.3534 -18.3375 -18.3260 -17.8153 -17.8145
   -12.1000 -12.0967 -12.0887 -12.0790 -11.9028 -11.9009 -11.3565 -11.3515
   -10.2605 -10.2593 -10.1598 -10.1586 -10.1534 -10.1525  -8.5843  -8.5765
    -8.5726  -8.5710  -8.5638  -8.5622  -7.8901  -7.8893  -7.8864  -7.8855
    -7.8456  -7.8453  -7.7818  -7.7769  -7.5175  -7.5113  -6.6360  -6.6349
    -6.3610  -6.3517  -6.3083  -6.3022  -6.2162  -6.2123  -5.7186  -5.7127
    -5.5725  -5.5671  -4.7414  -4.7381  -4.7092  -4.6903  -3.8911  -3.8887
    -0.1000   0.2803   1.0090   1.0497   1.3928   1.4358   1.4843   1.5420
     1.7765   1.7776   2.0443   2.0730   2.1866   2.2367   2.3877   2.4090
     2.4192   2.4460   2.5268   2.5410   2.5638   2.6041

          k =-1.0000 0.0000 0.0000 ( 59292 PWs)   bands (ev):

   -68.1107 -68.1105 -39.6132 -39.6128 -39.6032 -39.6031 -39.6000 -39.5998
   -21.0981 -21.0447 -20.5078 -20.4794 -19.4733 -19.4322 -19.4281 -19.4274
   -19.0379 -18.9950 -18.3996 -18.3377 -18.3283 -18.3058 -17.8278 -17.8040
   -12.1351 -12.0952 -12.0715 -12.0591 -11.9138 -11.8907 -11.3749 -11.3346
   -10.2802 -10.2540 -10.1620 -10.1570 -10.1484 -10.1444  -8.6241  -8.6048
    -8.5759  -8.5581  -8.5423  -8.5137  -7.9096  -7.9002  -7.8842  -7.8748
    -7.8381  -7.8379  -7.8159  -7.7529  -7.5397  -7.4916  -6.6426  -6.6258
    -6.3927  -6.3147  -6.3072  -6.2934  -6.2339  -6.1973  -5.7507  -5.6894
    -5.5917  -5.5480  -4.8058  -4.7224  -4.6845  -4.6656  -3.9152  -3.8675
    -0.2657   0.8030   1.0178   1.0566   1.2526   1.2848   1.5088   1.5543
     1.6104   1.6706   1.8758   2.1423   2.1761   2.2880   2.3045   2.3496
     2.4070   2.4786   2.5617   2.5740   2.6243   2.6334

     the Fermi energy is    -0.8253 ev

!    total energy              =   -1133.81301692 Ry

     total all-electron energy =     -6753.488720 Ry
     estimated scf accuracy    <       0.00000003 Ry
     smearing contrib. (-TS)   =      -0.00000000 Ry
     internal energy E=F+TS    =   -1133.81301692 Ry

     The total energy is F=E-TS. E is the sum of the following terms:
     one-electron contribution =   -3916.38157528 Ry
     hartree contribution      =    1986.73666733 Ry
     xc contribution           =    -186.19801463 Ry
     ewald contribution        =    1341.39761533 Ry
     DFT-D3 Dispersion         =      -0.13947262 Ry
     one-center paw contrib.   =    -359.22823706 Ry

     total magnetization       =    12.00 Bohr mag/cell
     absolute magnetization    =    12.00 Bohr mag/cell

     convergence has been achieved in  12 iterations

     Writing output data file ./mytmp/Crdimer0.22-0.3.save/
 
     init_run     :     18.51s CPU     19.64s WALL (       1 calls)
     electrons    :    442.26s CPU    471.79s WALL (       1 calls)

     Called by init_run:
     wfcinit      :     13.70s CPU     14.44s WALL (       1 calls)
     potinit      :      1.51s CPU      1.59s WALL (       1 calls)
     hinit0       :      1.54s CPU      1.62s WALL (       1 calls)

     Called by electrons:
     c_bands      :    359.44s CPU    381.68s WALL (      12 calls)
     sum_band     :     63.84s CPU     68.23s WALL (      12 calls)
     v_of_rho     :      3.98s CPU      4.25s WALL (      13 calls)
     newd         :      8.18s CPU     10.85s WALL (      13 calls)
     PAW_pot      :      6.40s CPU      6.48s WALL (      13 calls)
     mix_rho      :      0.81s CPU      0.84s WALL (      12 calls)

     Called by c_bands:
     init_us_2    :      4.36s CPU      4.40s WALL (     750 calls)
     cegterg      :    348.86s CPU    371.02s WALL (     360 calls)

     Called by *egterg:
     cdiaghg      :     23.64s CPU     37.56s WALL (    2507 calls)
     h_psi        :    223.41s CPU    231.20s WALL (    2537 calls)
     s_psi        :     25.00s CPU     25.09s WALL (    2537 calls)
     g_psi        :      0.69s CPU      0.70s WALL (    2147 calls)

     Called by h_psi:
     h_psi:calbec :     25.79s CPU     26.34s WALL (    2537 calls)
     vloc_psi     :    170.09s CPU    177.21s WALL (    2537 calls)
     add_vuspsi   :     25.53s CPU     25.66s WALL (    2537 calls)

     General routines
     calbec       :     33.78s CPU     34.48s WALL (    2897 calls)
     fft          :      3.50s CPU      4.02s WALL (     319 calls)
     ffts         :      0.09s CPU      0.10s WALL (      50 calls)
     fftw         :    173.15s CPU    180.29s WALL (  229496 calls)
     interpolate  :      0.36s CPU      0.38s WALL (      26 calls)
 
     Parallel routines
     fft_scatt_xy :     27.30s CPU     28.28s WALL (  229865 calls)
     fft_scatt_yz :     68.13s CPU     71.83s WALL (  229865 calls)
 
     PWSCF        :   7m42.80s CPU   8m15.50s WALL

 
   This run was terminated on:  21:28:47  29Mar2021            

=------------------------------------------------------------------------------=
   JOB DONE.
=------------------------------------------------------------------------------=
