
     Program PWSCF v.6.7MaX starts on 30Mar2021 at  0:38:55 

     This program is part of the open-source Quantum ESPRESSO suite
     for quantum simulation of materials; please cite
         "P. Giannozzi et al., J. Phys.:Condens. Matter 21 395502 (2009);
         "P. Giannozzi et al., J. Phys.:Condens. Matter 29 465901 (2017);
          URL http://www.quantum-espresso.org", 
     in publications or presentations arising from this work. More details at
     http://www.quantum-espresso.org/quote

     Parallel version (MPI), running on    48 processors

     MPI processes distributed on     1 nodes
     R & G space division:  proc/nbgrp/npool/nimage =      48
     Reading input from Crdimer0.3-0.2.scf.in

     Current dimensions of program PWSCF are:
     Max number of different atomic species (ntypx) = 10
     Max number of k-points (npk) =  40000
     Max angular momentum in pseudopotentials (lmaxx) =  3
     file N.pbe-n-kjpaw_psl.1.0.0.UPF: wavefunction(s)  2S renormalized
     file Cr.pbe-spn-kjpaw_psl.1.0.0.UPF: wavefunction(s)  3S 3P 3D renormalized
     file Cr.pbe-spn-kjpaw_psl.1.0.0.UPF: wavefunction(s)  3S 3P 3D renormalized

     --------------------------------------------
     Parameters for DFT-D3 Dispersion Correction:
     --------------------------------------------
       Reference C6 values for interpolation: 

         atom   Coordination number   C6
         B          0.000           214.36
         B          0.971           150.74
         B          1.944           106.23
         B          2.913            62.89
         B          4.586            56.06
         N          0.000            50.54
         N          0.994            44.25
         N          2.014            39.35
         N          2.990            31.16
         Cr1        0.000          1381.48
         Cr1        1.827           571.38
         Cr1       10.619           306.69
         Cr2        0.000          1381.48
         Cr2        1.827           571.38
         Cr2       10.619           306.69

       Values used:

         atom   Coordination number  R0_AB[au]  C6      C8
         B          3.366            3.039     62.87   2505.17
         B          3.335            3.039     62.89   2506.00
         B          3.336            3.039     62.89   2505.98
         B          3.339            3.039     62.89   2505.91
         B          3.344            3.039     62.89   2505.80
         B          3.335            3.039     62.89   2506.01
         N          3.139            2.478     31.22    688.65
         N          3.134            2.478     31.22    688.70
         N          3.138            2.478     31.22    688.66
         N          3.147            2.478     31.21    688.58
         N          3.135            2.478     31.22    688.69
         N          3.134            2.478     31.22    688.69
         N          3.147            2.478     31.21    688.58
         N          3.134            2.478     31.22    688.69
         N          3.134            2.478     31.22    688.70
         B          3.337            3.039     62.89   2505.96
         B          3.335            3.039     62.89   2506.00
         B          3.335            3.039     62.89   2506.01
         B          3.344            3.039     62.89   2505.80
         B          3.366            3.039     62.87   2505.17
         B          3.337            3.039     62.89   2505.96
         N          3.147            2.478     31.21    688.58
         B          3.337            3.039     62.89   2505.98
         B          3.336            3.039     62.89   2506.00
         B          3.343            3.039     62.89   2505.80
         N          3.134            2.478     31.22    688.69
         N          3.134            2.478     31.22    688.70
         N          3.135            2.478     31.22    688.69
         N          3.135            2.478     31.22    688.69
         N          3.138            2.478     31.22    688.66
         N          3.147            2.478     31.21    688.58
         B          3.343            3.039     62.89   2505.80
         Cr1        0.108            3.252   1381.48 127494.70
         Cr2        0.108            3.252   1381.48 127494.70

         Molecular C6 ( Ry / a.u.^6 ) =     79164.76


     Subspace diagonalization in iterative solution of the eigenvalue problem:
     one sub-group per band group will be used
     scalapack distributed-memory algorithm (size of sub-group:  6*  6 procs)

 
     Parallelization info
     --------------------
     sticks:   dense  smooth     PW     G-vecs:    dense   smooth      PW
     Min         235      98     26                36277     9874    1408
     Max         236      99     27                36282     9883    1425
     Sum       11311    4741   1285              1741401   474235   68095
 


     bravais-lattice index     =            4
     lattice parameter (alat)  =      18.9275  a.u.
     unit-cell volume          =   10553.3021 (a.u.)^3
     number of atoms/cell      =           34
     number of atomic types    =            4
     number of electrons       =       156.00
     number of Kohn-Sham states=           94
     kinetic-energy cutoff     =      48.0000  Ry
     charge density cutoff     =     457.0000  Ry
     scf convergence threshold =      1.0E-07
     mixing beta               =       0.5000
     number of iterations used =            8  plain     mixing
     Exchange-correlation= SLA  PW   PBX  PBC
                           (   1   4   3   4   0   0   0)

     celldm(1)=  18.927497  celldm(2)=   0.000000  celldm(3)=   1.797125
     celldm(4)=   0.000000  celldm(5)=   0.000000  celldm(6)=   0.000000

     crystal axes: (cart. coord. in units of alat)
               a(1) = (   1.000000   0.000000   0.000000 )  
               a(2) = (  -0.500000   0.866025   0.000000 )  
               a(3) = (   0.000000   0.000000   1.797125 )  

     reciprocal axes: (cart. coord. in units 2 pi/alat)
               b(1) = (  1.000000  0.577350  0.000000 )  
               b(2) = (  0.000000  1.154701  0.000000 )  
               b(3) = (  0.000000  0.000000  0.556444 )  


     PseudoPot. # 1 for B  read from file:
     /home/sf05/q-e-qe-6.7MaX-Release/pseudo/B.pbe-n-kjpaw_psl.1.0.0.UPF
     MD5 check sum: d9c678ba5d3b2fd7b74e61139c9288d8
     Pseudo is Projector augmented-wave + core cor, Zval =  3.0
     Generated using "atomic" code by A. Dal Corso  v.5.1.2
     Shape of augmentation charge: PSQ
     Using radial grid of 1059 points,  4 beta functions with: 
                l(1) =   0
                l(2) =   0
                l(3) =   1
                l(4) =   1
     Q(r) pseudized with 0 coefficients 


     PseudoPot. # 2 for N  read from file:
     /home/sf05/q-e-qe-6.7MaX-Release/pseudo/N.pbe-n-kjpaw_psl.1.0.0.UPF
     MD5 check sum: e0e4e94a9c4025c5b51bd7d8793849bd
     Pseudo is Projector augmented-wave + core cor, Zval =  5.0
     Generated using "atomic" code by A. Dal Corso  v.5.1.2
     Shape of augmentation charge: PSQ
     Using radial grid of 1085 points,  4 beta functions with: 
                l(1) =   0
                l(2) =   0
                l(3) =   1
                l(4) =   1
     Q(r) pseudized with 0 coefficients 


     PseudoPot. # 3 for Cr read from file:
     /home/sf05/q-e-qe-6.7MaX-Release/pseudo/Cr.pbe-spn-kjpaw_psl.1.0.0.UPF
     MD5 check sum: 198f1a2427a48552563eee314eba32ba
     Pseudo is Projector augmented-wave + core cor, Zval = 14.0
     Generated using &quot;atomic&quot; code by A. Dal Corso  v.6.3
     Shape of augmentation charge: PSQ
     Using radial grid of 1183 points,  6 beta functions with: 
                l(1) =   0
                l(2) =   0
                l(3) =   1
                l(4) =   1
                l(5) =   2
                l(6) =   2
     Q(r) pseudized with 0 coefficients 


     PseudoPot. # 4 for Cr read from file:
     /home/sf05/q-e-qe-6.7MaX-Release/pseudo/Cr.pbe-spn-kjpaw_psl.1.0.0.UPF
     MD5 check sum: 198f1a2427a48552563eee314eba32ba
     Pseudo is Projector augmented-wave + core cor, Zval = 14.0
     Generated using &quot;atomic&quot; code by A. Dal Corso  v.6.3
     Shape of augmentation charge: PSQ
     Using radial grid of 1183 points,  6 beta functions with: 
                l(1) =   0
                l(2) =   0
                l(3) =   1
                l(4) =   1
                l(5) =   2
                l(6) =   2
     Q(r) pseudized with 0 coefficients 


     atomic species   valence    mass     pseudopotential
        B              3.00    10.81100     B ( 1.00)
        N              5.00    14.00674     N ( 1.00)
        Cr1           14.00    51.99610     Cr( 1.00)
        Cr2           14.00    51.99610     Cr( 1.00)

     Starting magnetic structure 
     atomic species   magnetization
        B            0.000
        N            0.000
        Cr1          1.000
        Cr2          1.000

     No symmetry found



   Cartesian axes

     site n.     atom                  positions (alat units)
         1           B   tau(   1) = (  -0.1250000   0.2165064   0.8985623  )
         2           B   tau(   2) = (   0.3750000   0.6495191   0.8985623  )
         3           B   tau(   3) = (   0.2500000   0.0000000   0.8985623  )
         4           B   tau(   4) = (   0.7500000   0.0000000   0.8985623  )
         5           B   tau(   5) = (   0.1250000   0.2165064   0.8985623  )
         6           B   tau(   6) = (  -0.3750000   0.6495191   0.8985623  )
         7           N   tau(   7) = (   0.7500005   0.2886748   0.8985623  )
         8           N   tau(   8) = (   0.3750005   0.5051812   0.8985623  )
         9           N   tau(   9) = (   0.3750005   0.0721685   0.8985623  )
        10           N   tau(  10) = (   0.6250005   0.0721685   0.8985623  )
        11           N   tau(  11) = (   0.2500005   0.2886748   0.8985623  )
        12           N   tau(  12) = (   0.6250005   0.5051812   0.8985623  )
        13           N   tau(  13) = (   0.0000005   0.2886748   0.8985623  )
        14           N   tau(  14) = (   0.2500005   0.7216875   0.8985623  )
        15           N   tau(  15) = (  -0.2499995   0.7216875   0.8985623  )
        16           B   tau(  16) = (   0.0000000   0.4330127   0.8985623  )
        17           B   tau(  17) = (   0.1250000   0.6495191   0.8985623  )
        18           B   tau(  18) = (  -0.1250000   0.6495191   0.8985623  )
        19           B   tau(  19) = (   0.3750000   0.2165064   0.8985623  )
        20           B   tau(  20) = (   0.6250000   0.2165064   0.8985623  )
        21           B   tau(  21) = (   0.5000000   0.4330127   0.8985623  )
        22           N   tau(  22) = (   0.5000005   0.2886748   0.8985623  )
        23           B   tau(  23) = (  -0.2500000   0.4330127   0.8985623  )
        24           B   tau(  24) = (   0.2500000   0.4330127   0.8985623  )
        25           B   tau(  25) = (   0.5000000   0.0000000   0.8985623  )
        26           N   tau(  26) = (  -0.1249995   0.5051812   0.8985623  )
        27           N   tau(  27) = (   0.1250005   0.5051812   0.8985623  )
        28           N   tau(  28) = (   0.0000005   0.7216875   0.8985623  )
        29           N   tau(  29) = (   0.5000005   0.7216875   0.8985623  )
        30           N   tau(  30) = (   0.1250005   0.0721685   0.8985623  )
        31           N   tau(  31) = (   0.8750005   0.0721685   0.8985623  )
        32           B   tau(  32) = (   0.0000000   0.0000000   0.8985623  )
        33           Cr1 tau(  33) = (   0.5500000   0.1732051   1.2040735  )
        34           Cr2 tau(  34) = (  -0.0500000   0.1732051   1.2040735  )

     number of k points=    15  Gaussian smearing, width (Ry)=  0.0000
                       cart. coord. in units 2pi/alat
        k(    1) = (   0.1666667   0.2886751   0.0000000), wk =   0.0740741
        k(    2) = (   0.1666667  -0.4811252   0.0000000), wk =   0.0740741
        k(    3) = (   0.1666667  -0.0962250   0.0000000), wk =   0.0740741
        k(    4) = (  -0.5000000  -0.8660254   0.0000000), wk =   0.0370370
        k(    5) = (  -0.1666667   0.2886751   0.0000000), wk =   0.0740741
        k(    6) = (   0.3333333   0.0000000   0.0000000), wk =   0.0740741
        k(    7) = (  -0.1666667  -0.4811252   0.0000000), wk =   0.0740741
        k(    8) = (   0.5000000  -0.0962250   0.0000000), wk =   0.0740741
        k(    9) = (  -0.3333333  -0.3849002   0.0000000), wk =   0.0740741
        k(   10) = (   0.5000000   0.0962250   0.0000000), wk =   0.0740741
        k(   11) = (  -0.3333333   0.3849002   0.0000000), wk =   0.0740741
        k(   12) = (  -0.1666667  -0.0962250   0.0000000), wk =   0.0740741
        k(   13) = (  -0.0000000  -0.1924501   0.0000000), wk =   0.0740741
        k(   14) = (   0.5000000  -0.8660254   0.0000000), wk =   0.0370370
        k(   15) = (  -1.0000000   0.0000000   0.0000000), wk =   0.0370370

     Dense  grid:  1741401 G-vectors     FFT dimensions: ( 135, 135, 240)

     Smooth grid:   474235 G-vectors     FFT dimensions: (  90,  90, 160)

     Estimated max dynamical RAM per process >     218.62 MB

     Estimated total dynamical RAM >      10.25 GB
     Generating pointlists ...
     new r_m :   0.0595 (alat units)  1.1269 (a.u.) for type    1
     new r_m :   0.0595 (alat units)  1.1269 (a.u.) for type    2
     new r_m :   0.1310 (alat units)  2.4793 (a.u.) for type    3
     new r_m :   0.1310 (alat units)  2.4793 (a.u.) for type    4

     Initial potential from superposition of free atoms

     starting charge  155.99382, renormalised to  156.00000

     negative rho (up, down):  6.559E-03 4.655E-04
     Starting wfcs are  148 randomized atomic wfcs
     Checking if some PAW data can be deallocated... 

     total cpu time spent up to now is       20.4 secs

     Self-consistent Calculation

     iteration #  1     ecut=    48.00 Ry     beta= 0.50
     Davidson diagonalization with overlap
     ethr =  1.00E-02,  avg # of iterations =  2.9

     negative rho (up, down):  4.734E-03 2.939E-03

     total cpu time spent up to now is       64.6 secs

     total energy              =   -1130.76552664 Ry
     estimated scf accuracy    <      11.37313898 Ry

     total magnetization       =    12.00 Bohr mag/cell
     absolute magnetization    =    12.16 Bohr mag/cell

     iteration #  2     ecut=    48.00 Ry     beta= 0.50
     Davidson diagonalization with overlap
     ethr =  7.29E-03,  avg # of iterations =  2.7

     negative rho (up, down):  7.294E-03 9.535E-03

     total cpu time spent up to now is      105.8 secs

     total energy              =   -1133.07116915 Ry
     estimated scf accuracy    <       3.25714246 Ry

     total magnetization       =    11.78 Bohr mag/cell
     absolute magnetization    =    11.78 Bohr mag/cell

     iteration #  3     ecut=    48.00 Ry     beta= 0.50
     Davidson diagonalization with overlap
     ethr =  2.09E-03,  avg # of iterations =  7.1

     negative rho (up, down):  3.385E-03 4.925E-03

     total cpu time spent up to now is      147.3 secs

     total energy              =   -1133.61981493 Ry
     estimated scf accuracy    <       0.66372332 Ry

     total magnetization       =    12.00 Bohr mag/cell
     absolute magnetization    =    12.05 Bohr mag/cell

     iteration #  4     ecut=    48.00 Ry     beta= 0.50
     Davidson diagonalization with overlap
     ethr =  4.25E-04,  avg # of iterations =  6.7

     negative rho (up, down):  6.874E-03 1.368E-02

     total cpu time spent up to now is      187.9 secs

     total energy              =   -1133.79925156 Ry
     estimated scf accuracy    <       0.26770597 Ry

     total magnetization       =    12.00 Bohr mag/cell
     absolute magnetization    =    12.00 Bohr mag/cell

     iteration #  5     ecut=    48.00 Ry     beta= 0.50
     Davidson diagonalization with overlap
     ethr =  1.72E-04,  avg # of iterations =  8.2

     negative rho (up, down):  4.569E-03 1.006E-02

     total cpu time spent up to now is      229.9 secs

     total energy              =   -1133.80936411 Ry
     estimated scf accuracy    <       0.02251172 Ry

     total magnetization       =    12.00 Bohr mag/cell
     absolute magnetization    =    12.00 Bohr mag/cell

     iteration #  6     ecut=    48.00 Ry     beta= 0.50
     Davidson diagonalization with overlap
     c_bands:  1 eigenvalues not converged
     c_bands:  1 eigenvalues not converged
     c_bands:  1 eigenvalues not converged
     c_bands:  3 eigenvalues not converged
     c_bands:  1 eigenvalues not converged
     c_bands:  1 eigenvalues not converged
     c_bands:  1 eigenvalues not converged
     c_bands:  2 eigenvalues not converged
     c_bands:  2 eigenvalues not converged
     ethr =  1.44E-05,  avg # of iterations = 14.1

     negative rho (up, down):  3.407E-03 8.044E-03

     total cpu time spent up to now is      290.8 secs

     total energy              =   -1133.81449704 Ry
     estimated scf accuracy    <       0.00325003 Ry

     total magnetization       =    12.00 Bohr mag/cell
     absolute magnetization    =    12.01 Bohr mag/cell

     iteration #  7     ecut=    48.00 Ry     beta= 0.50
     Davidson diagonalization with overlap
     c_bands:  1 eigenvalues not converged
     c_bands:  1 eigenvalues not converged
     c_bands:  1 eigenvalues not converged
     ethr =  2.08E-06,  avg # of iterations =  9.7

     negative rho (up, down):  3.032E-03 7.468E-03

     total cpu time spent up to now is      340.2 secs

     total energy              =   -1133.81532388 Ry
     estimated scf accuracy    <       0.00032255 Ry

     total magnetization       =    12.00 Bohr mag/cell
     absolute magnetization    =    12.00 Bohr mag/cell

     iteration #  8     ecut=    48.00 Ry     beta= 0.50
     Davidson diagonalization with overlap
     c_bands:  1 eigenvalues not converged
     ethr =  2.07E-07,  avg # of iterations =  3.7

     negative rho (up, down):  2.906E-03 7.294E-03

     total cpu time spent up to now is      378.3 secs

     total energy              =   -1133.81546123 Ry
     estimated scf accuracy    <       0.00011792 Ry

     total magnetization       =    12.00 Bohr mag/cell
     absolute magnetization    =    12.00 Bohr mag/cell

     iteration #  9     ecut=    48.00 Ry     beta= 0.50
     Davidson diagonalization with overlap
     ethr =  7.56E-08,  avg # of iterations =  3.0

     negative rho (up, down):  2.868E-03 7.282E-03

     total cpu time spent up to now is      414.1 secs

     total energy              =   -1133.81555914 Ry
     estimated scf accuracy    <       0.00000813 Ry

     total magnetization       =    12.00 Bohr mag/cell
     absolute magnetization    =    12.00 Bohr mag/cell

     iteration # 10     ecut=    48.00 Ry     beta= 0.50
     Davidson diagonalization with overlap
     ethr =  5.21E-09,  avg # of iterations =  4.8

     negative rho (up, down):  2.856E-03 7.284E-03

     total cpu time spent up to now is      461.9 secs

     total energy              =   -1133.81558100 Ry
     estimated scf accuracy    <       0.00000560 Ry

     total magnetization       =    12.00 Bohr mag/cell
     absolute magnetization    =    12.00 Bohr mag/cell

     iteration # 11     ecut=    48.00 Ry     beta= 0.50
     Davidson diagonalization with overlap
     ethr =  3.59E-09,  avg # of iterations =  2.0

     negative rho (up, down):  2.853E-03 7.291E-03

     total cpu time spent up to now is      502.2 secs

     total energy              =   -1133.81560395 Ry
     estimated scf accuracy    <       0.00000031 Ry

     total magnetization       =    12.00 Bohr mag/cell
     absolute magnetization    =    12.00 Bohr mag/cell

     iteration # 12     ecut=    48.00 Ry     beta= 0.50
     Davidson diagonalization with overlap
     ethr =  1.96E-10,  avg # of iterations =  4.8

     negative rho (up, down):  2.851E-03 7.297E-03
 
     Magnetic moment per site:
     atom:    1    charge:    0.8809    magn:    0.0004    constr:    0.0000
     atom:    2    charge:    0.8803    magn:    0.0001    constr:    0.0000
     atom:    3    charge:    0.8803    magn:    0.0008    constr:    0.0000
     atom:    4    charge:    0.8804    magn:    0.0014    constr:    0.0000
     atom:    5    charge:    0.8803    magn:    0.0002    constr:    0.0000
     atom:    6    charge:    0.8803    magn:    0.0001    constr:    0.0000
     atom:    7    charge:    2.8606    magn:    0.0072    constr:    0.0000
     atom:    8    charge:    2.8609    magn:    0.0003    constr:    0.0000
     atom:    9    charge:    2.8607    magn:    0.0042    constr:    0.0000
     atom:   10    charge:    2.8606    magn:    0.0090    constr:    0.0000
     atom:   11    charge:    2.8609    magn:    0.0016    constr:    0.0000
     atom:   12    charge:    2.8609    magn:    0.0006    constr:    0.0000
     atom:   13    charge:    2.8596    magn:    0.0084    constr:    0.0000
     atom:   14    charge:    2.8598    magn:    0.0005    constr:    0.0000
     atom:   15    charge:    2.8599    magn:    0.0003    constr:    0.0000
     atom:   16    charge:    0.8801    magn:    0.0008    constr:    0.0000
     atom:   17    charge:    0.8800    magn:    0.0001    constr:    0.0000
     atom:   18    charge:    0.8800    magn:    0.0001    constr:    0.0000
     atom:   19    charge:    0.8797    magn:    0.0002    constr:    0.0000
     atom:   20    charge:    0.8803    magn:    0.0004    constr:    0.0000
     atom:   21    charge:    0.8798    magn:    0.0008    constr:    0.0000
     atom:   22    charge:    2.8609    magn:    0.0084    constr:    0.0000
     atom:   23    charge:    0.8799    magn:    0.0003    constr:    0.0000
     atom:   24    charge:    0.8799    magn:    0.0002    constr:    0.0000
     atom:   25    charge:    0.8800    magn:    0.0002    constr:    0.0000
     atom:   26    charge:    2.8598    magn:    0.0006    constr:    0.0000
     atom:   27    charge:    2.8598    magn:    0.0003    constr:    0.0000
     atom:   28    charge:    2.8598    magn:    0.0009    constr:    0.0000
     atom:   29    charge:    2.8596    magn:    0.0009    constr:    0.0000
     atom:   30    charge:    2.8594    magn:    0.0042    constr:    0.0000
     atom:   31    charge:    2.8593    magn:    0.0090    constr:    0.0000
     atom:   32    charge:    0.8803    magn:    0.0002    constr:    0.0000
     atom:   33    charge:   12.8545    magn:    4.8422    constr:    0.0000
     atom:   34    charge:   12.8545    magn:    4.8422    constr:    0.0000

     total cpu time spent up to now is      543.0 secs

     End of self-consistent calculation

 ------ SPIN UP ------------


          k = 0.1667 0.2887 0.0000 ( 59267 PWs)   bands (ev):

   -72.5009 -72.5006 -43.9666 -43.9654 -43.9586 -43.9583 -43.9546 -43.9543
   -21.2686 -20.6887 -20.6708 -20.1299 -20.1140 -19.6158 -19.5977 -19.1213
   -18.7243 -18.7077 -18.4826 -18.4686 -18.2171 -18.1096 -18.0964 -17.8710
   -12.5051 -12.2303 -12.2204 -11.8441 -11.8370 -11.6794 -11.2177 -11.2054
   -10.4132 -10.3889 -10.1428 -10.1324  -9.6121  -9.6072  -8.8606  -8.8476
    -8.8417  -8.7932  -8.7772  -8.6176  -8.2183  -8.0774  -8.0346  -7.8513
    -7.8470  -7.4619  -7.4562  -7.3143  -7.2694  -7.2319  -7.2247  -6.9850
    -6.9732  -6.5944  -6.5534  -6.1758  -6.1731  -5.8941  -5.4398  -5.3212
    -5.2912  -5.2214  -4.9454  -4.9106  -4.5287  -4.3792  -4.3602  -4.0004
    -2.5144  -1.5556  -1.4946  -1.4852  -1.4683  -1.3971  -1.3847  -1.3822
    -1.3489  -1.3264  -1.3147  -1.1924   0.5901   0.7617   0.9944   1.1418
     1.2529   1.4303   1.4879   1.5488   1.5754   1.6836

          k = 0.1667-0.4811 0.0000 ( 59291 PWs)   bands (ev):

   -72.5009 -72.5006 -43.9666 -43.9654 -43.9586 -43.9583 -43.9546 -43.9543
   -21.1382 -20.9342 -20.7439 -20.1822 -19.8259 -19.4885 -19.3388 -19.1959
   -19.0364 -18.8006 -18.6617 -18.5661 -18.1707 -18.1114 -17.9433 -17.7453
   -12.3692 -12.1346 -12.0657 -11.9279 -11.7038 -11.6775 -11.5739 -10.9634
   -10.9110 -10.6445 -10.5445  -9.8813  -9.7144  -9.3574  -9.1321  -8.6899
    -8.6442  -8.5741  -8.4106  -8.3902  -8.1824  -8.1449  -8.0862  -8.0693
    -7.7091  -7.6444  -7.5159  -7.4944  -7.3775  -7.1922  -7.0891  -6.8821
    -6.6434  -6.4120  -6.1990  -6.1791  -5.9934  -5.9504  -5.8047  -5.7678
    -5.4726  -5.4210  -5.2280  -5.0633  -4.4653  -4.3702  -4.1107  -3.7878
    -2.5077  -1.5609  -1.4928  -1.4851  -1.4671  -1.3942  -1.3861  -1.3829
    -1.3504  -1.3268  -1.3142  -1.1935   0.5749   0.6298   1.0280   1.0703
     1.1939   1.2340   1.3657   1.7716   1.8463   1.9047

          k = 0.1667-0.0962 0.0000 ( 59226 PWs)   bands (ev):

   -72.5009 -72.5006 -43.9666 -43.9654 -43.9586 -43.9583 -43.9546 -43.9543
   -21.3350 -20.5573 -20.3664 -20.3614 -20.0108 -20.0011 -19.8271 -18.7518
   -18.7433 -18.4002 -18.3879 -18.3772 -18.2939 -18.2778 -18.0981 -18.0933
   -12.5310 -12.5210 -12.4293 -11.6024 -11.5974 -11.4514 -11.4377 -10.9473
   -10.9450  -9.9506  -9.9473  -9.6970  -9.3991  -9.3904  -9.2517  -9.2492
    -9.0633  -9.0612  -8.9457  -8.3452  -8.3425  -7.9236  -7.9192  -7.9033
    -7.8666  -7.7915  -7.6258  -7.6108  -7.1519  -7.1173  -6.9804  -6.9095
    -6.9061  -6.8724  -6.5524  -6.5492  -6.2786  -5.3669  -5.3434  -5.1645
    -5.0865  -4.8368  -4.8156  -4.7728  -4.6508  -4.6111  -4.3701  -4.3570
    -2.5213  -1.5503  -1.4964  -1.4856  -1.4692  -1.4009  -1.3835  -1.3816
    -1.3475  -1.3260  -1.3153  -1.1913   0.6078   0.9158   0.9389   1.1527
     1.2314   1.3091   1.4897   1.5650   1.6201   1.6572

          k =-0.5000-0.8660 0.0000 ( 59292 PWs)   bands (ev):

   -72.5009 -72.5006 -43.9667 -43.9654 -43.9586 -43.9583 -43.9546 -43.9543
   -21.0797 -21.0598 -20.4910 -20.4857 -19.4533 -19.4407 -19.4344 -19.4277
   -19.0198 -19.0042 -18.3573 -18.3478 -18.3379 -18.3196 -17.8154 -17.8099
   -12.0999 -12.0920 -12.0834 -12.0700 -11.8999 -11.8933 -11.3556 -11.3433
   -10.2578 -10.2528 -10.1566 -10.1524 -10.1510 -10.1469  -8.6158  -8.5752
    -8.5730  -8.5644  -8.5600  -8.5541  -7.8855  -7.8842  -7.8820  -7.8791
    -7.8439  -7.8401  -7.7975  -7.7823  -7.5172  -7.5013  -6.6336  -6.6275
    -6.3872  -6.3477  -6.3288  -6.3141  -6.2154  -6.2045  -5.7383  -5.7127
    -5.5725  -5.5573  -4.7574  -4.7423  -4.7341  -4.6881  -3.9055  -3.8924
    -2.4516  -1.6569  -1.4905  -1.4786  -1.4589  -1.3941  -1.3907  -1.3809
    -1.3569  -1.3361  -1.3244  -1.2845   0.8886   1.0318   1.0553   1.1856
     1.2202   1.3471   1.4708   1.5741   1.6160   1.6453

          k =-0.1667 0.2887 0.0000 ( 59267 PWs)   bands (ev):

   -72.5009 -72.5006 -43.9666 -43.9654 -43.9586 -43.9583 -43.9546 -43.9543
   -21.2686 -20.6887 -20.6708 -20.1299 -20.1140 -19.6159 -19.5976 -19.1213
   -18.7244 -18.7076 -18.4826 -18.4686 -18.2170 -18.1097 -18.0963 -17.8710
   -12.5051 -12.2303 -12.2204 -11.8441 -11.8370 -11.6794 -11.2178 -11.2053
   -10.4132 -10.3889 -10.1428 -10.1324  -9.6121  -9.6071  -8.8606  -8.8476
    -8.8416  -8.7933  -8.7772  -8.6175  -8.2183  -8.0774  -8.0346  -7.8513
    -7.8469  -7.4618  -7.4563  -7.3143  -7.2694  -7.2319  -7.2246  -6.9850
    -6.9732  -6.5944  -6.5534  -6.1758  -6.1730  -5.8940  -5.4399  -5.3212
    -5.2912  -5.2213  -4.9454  -4.9106  -4.5287  -4.3792  -4.3602  -4.0003
    -2.5144  -1.5556  -1.4946  -1.4852  -1.4683  -1.3971  -1.3847  -1.3822
    -1.3489  -1.3264  -1.3147  -1.1924   0.5901   0.7617   0.9945   1.1418
     1.2529   1.4303   1.4880   1.5487   1.5754   1.6837

          k = 0.3333 0.0000 0.0000 ( 59267 PWs)   bands (ev):

   -72.5009 -72.5006 -43.9667 -43.9654 -43.9586 -43.9583 -43.9546 -43.9543
   -21.2682 -20.7062 -20.6532 -20.1236 -20.1191 -19.6334 -19.5816 -19.1229
   -18.7353 -18.6927 -18.4781 -18.4748 -18.2132 -18.1268 -18.0844 -17.8704
   -12.5051 -12.2264 -12.2240 -11.8499 -11.8329 -11.6777 -11.2302 -11.1936
   -10.4120 -10.3891 -10.1507 -10.1246  -9.6164  -9.6020  -8.8672  -8.8447
    -8.8366  -8.8073  -8.7635  -8.6183  -8.2197  -8.1226  -7.9887  -7.8491
    -7.8475  -7.4657  -7.4520  -7.3095  -7.2707  -7.2385  -7.2180  -6.9808
    -6.9784  -6.6375  -6.5165  -6.1777  -6.1705  -5.8984  -5.4396  -5.3272
    -5.2775  -5.2217  -4.9383  -4.9207  -4.5205  -4.3995  -4.3491  -3.9998
    -2.4795  -1.6134  -1.4926  -1.4813  -1.4627  -1.3985  -1.3867  -1.3810
    -1.3524  -1.3323  -1.3219  -1.2613   0.9317   0.9803   0.9885   1.1846
     1.2456   1.3611   1.4601   1.5006   1.5612   1.6051

          k =-0.1667-0.4811 0.0000 ( 59291 PWs)   bands (ev):

   -72.5009 -72.5006 -43.9666 -43.9654 -43.9586 -43.9583 -43.9546 -43.9543
   -21.1382 -20.9342 -20.7439 -20.1822 -19.8259 -19.4885 -19.3388 -19.1959
   -19.0364 -18.8006 -18.6617 -18.5661 -18.1707 -18.1114 -17.9433 -17.7453
   -12.3692 -12.1346 -12.0657 -11.9279 -11.7038 -11.6775 -11.5739 -10.9634
   -10.9110 -10.6445 -10.5445  -9.8813  -9.7143  -9.3575  -9.1322  -8.6899
    -8.6442  -8.5741  -8.4105  -8.3902  -8.1823  -8.1449  -8.0862  -8.0694
    -7.7091  -7.6445  -7.5159  -7.4944  -7.3775  -7.1921  -7.0890  -6.8820
    -6.6434  -6.4120  -6.1991  -6.1791  -5.9934  -5.9504  -5.8047  -5.7678
    -5.4727  -5.4210  -5.2280  -5.0633  -4.4653  -4.3702  -4.1107  -3.7878
    -2.5077  -1.5609  -1.4928  -1.4851  -1.4671  -1.3943  -1.3861  -1.3830
    -1.3504  -1.3268  -1.3142  -1.1935   0.5749   0.6298   1.0280   1.0703
     1.1939   1.2339   1.3657   1.7716   1.8463   1.9045

          k = 0.5000-0.0962 0.0000 ( 59291 PWs)   bands (ev):

   -72.5009 -72.5006 -43.9667 -43.9654 -43.9586 -43.9583 -43.9546 -43.9543
   -21.1359 -20.9405 -20.7397 -20.1806 -19.8263 -19.4896 -19.3441 -19.1917
   -19.0372 -18.8007 -18.6538 -18.5713 -18.1611 -18.1246 -17.9407 -17.7452
   -12.3686 -12.1349 -12.0640 -11.9311 -11.7130 -11.6662 -11.5759 -10.9636
   -10.9093 -10.6432 -10.5464  -9.8794  -9.7150  -9.3583  -9.1317  -8.6804
    -8.6446  -8.5724  -8.4194  -8.4133  -8.1806  -8.1257  -8.0964  -8.0601
    -7.7060  -7.6449  -7.5152  -7.4954  -7.3721  -7.1934  -7.0896  -6.8833
    -6.6436  -6.4176  -6.2160  -6.1786  -5.9795  -5.9497  -5.8041  -5.7694
    -5.4736  -5.4181  -5.2100  -5.0774  -4.4461  -4.3942  -4.1068  -3.7881
    -2.4517  -1.6569  -1.4904  -1.4786  -1.4588  -1.3955  -1.3902  -1.3809
    -1.3569  -1.3361  -1.3244  -1.2845   0.8562   1.0208   1.0581   1.1328
     1.2239   1.3242   1.3798   1.4747   1.6399   1.8059

          k =-0.3333-0.3849 0.0000 ( 59291 PWs)   bands (ev):

   -72.5009 -72.5006 -43.9666 -43.9654 -43.9586 -43.9583 -43.9546 -43.9543
   -21.1367 -20.9383 -20.7412 -20.1805 -19.8276 -19.4883 -19.3400 -19.1943
   -19.0396 -18.7994 -18.6551 -18.5704 -18.1629 -18.1224 -17.9408 -17.7453
   -12.3688 -12.1336 -12.0658 -11.9304 -11.7042 -11.6760 -11.5749 -10.9634
   -10.9091 -10.6427 -10.5472  -9.8802  -9.7151  -9.3578  -9.1321  -8.6833
    -8.6436  -8.5743  -8.4122  -8.4080  -8.1820  -8.1325  -8.0865  -8.0707
    -7.7064  -7.6434  -7.5208  -7.4904  -7.3716  -7.1935  -7.0900  -6.8885
    -6.6419  -6.4115  -6.2027  -6.1805  -5.9897  -5.9490  -5.8043  -5.7775
    -5.4735  -5.4144  -5.2094  -5.0774  -4.4484  -4.3926  -4.1062  -3.7882
    -2.4719  -1.6201  -1.4912  -1.4807  -1.4624  -1.3944  -1.3889  -1.3817
    -1.3543  -1.3327  -1.3211  -1.2619   0.7543   0.9132   1.0571   1.0873
     1.1772   1.2863   1.3583   1.5413   1.7545   1.8517

          k = 0.5000 0.0962 0.0000 ( 59291 PWs)   bands (ev):

   -72.5009 -72.5006 -43.9667 -43.9654 -43.9586 -43.9583 -43.9546 -43.9543
   -21.1359 -20.9405 -20.7397 -20.1806 -19.8263 -19.4896 -19.3441 -19.1917
   -19.0372 -18.8007 -18.6538 -18.5713 -18.1611 -18.1246 -17.9407 -17.7452
   -12.3686 -12.1349 -12.0639 -11.9311 -11.7130 -11.6662 -11.5759 -10.9636
   -10.9093 -10.6432 -10.5464  -9.8794  -9.7150  -9.3583  -9.1316  -8.6804
    -8.6446  -8.5724  -8.4194  -8.4133  -8.1806  -8.1257  -8.0964  -8.0601
    -7.7061  -7.6449  -7.5152  -7.4954  -7.3721  -7.1934  -7.0896  -6.8833
    -6.6435  -6.4176  -6.2160  -6.1785  -5.9795  -5.9497  -5.8042  -5.7694
    -5.4737  -5.4182  -5.2100  -5.0773  -4.4461  -4.3942  -4.1068  -3.7881
    -2.4517  -1.6569  -1.4904  -1.4786  -1.4588  -1.3955  -1.3902  -1.3809
    -1.3569  -1.3361  -1.3244  -1.2845   0.8562   1.0208   1.0582   1.1328
     1.2239   1.3243   1.3798   1.4747   1.6399   1.8059

          k =-0.3333 0.3849 0.0000 ( 59291 PWs)   bands (ev):

   -72.5009 -72.5006 -43.9666 -43.9654 -43.9586 -43.9583 -43.9546 -43.9543
   -21.1367 -20.9384 -20.7412 -20.1805 -19.8276 -19.4883 -19.3400 -19.1943
   -19.0396 -18.7994 -18.6550 -18.5704 -18.1628 -18.1224 -17.9408 -17.7453
   -12.3688 -12.1336 -12.0658 -11.9304 -11.7043 -11.6760 -11.5749 -10.9634
   -10.9090 -10.6426 -10.5472  -9.8802  -9.7150  -9.3578  -9.1322  -8.6833
    -8.6437  -8.5742  -8.4123  -8.4081  -8.1820  -8.1325  -8.0866  -8.0707
    -7.7064  -7.6434  -7.5208  -7.4903  -7.3716  -7.1935  -7.0901  -6.8885
    -6.6419  -6.4115  -6.2027  -6.1805  -5.9897  -5.9491  -5.8043  -5.7775
    -5.4734  -5.4144  -5.2094  -5.0774  -4.4484  -4.3926  -4.1062  -3.7882
    -2.4719  -1.6201  -1.4912  -1.4807  -1.4624  -1.3944  -1.3889  -1.3816
    -1.3543  -1.3327  -1.3211  -1.2619   0.7544   0.9131   1.0570   1.0873
     1.1772   1.2863   1.3583   1.5413   1.7545   1.8517

          k =-0.1667-0.0962 0.0000 ( 59226 PWs)   bands (ev):

   -72.5009 -72.5006 -43.9666 -43.9654 -43.9586 -43.9583 -43.9546 -43.9543
   -21.3350 -20.5573 -20.3664 -20.3614 -20.0108 -20.0011 -19.8271 -18.7518
   -18.7433 -18.4002 -18.3880 -18.3772 -18.2938 -18.2779 -18.0981 -18.0933
   -12.5311 -12.5210 -12.4293 -11.6023 -11.5974 -11.4514 -11.4377 -10.9472
   -10.9450  -9.9507  -9.9473  -9.6969  -9.3991  -9.3904  -9.2517  -9.2493
    -9.0633  -9.0612  -8.9457  -8.3452  -8.3425  -7.9236  -7.9191  -7.9033
    -7.8665  -7.7916  -7.6258  -7.6108  -7.1519  -7.1173  -6.9805  -6.9095
    -6.9061  -6.8724  -6.5524  -6.5492  -6.2787  -5.3669  -5.3434  -5.1644
    -5.0866  -4.8367  -4.8156  -4.7728  -4.6508  -4.6111  -4.3701  -4.3570
    -2.5213  -1.5503  -1.4964  -1.4856  -1.4692  -1.4009  -1.3835  -1.3817
    -1.3475  -1.3260  -1.3153  -1.1913   0.6078   0.9157   0.9389   1.1527
     1.2314   1.3091   1.4897   1.5650   1.6201   1.6572

          k =-0.0000-0.1925 0.0000 ( 59226 PWs)   bands (ev):

   -72.5009 -72.5006 -43.9666 -43.9654 -43.9586 -43.9583 -43.9546 -43.9543
   -21.3351 -20.5530 -20.3785 -20.3567 -20.0109 -19.9948 -19.8302 -18.7551
   -18.7370 -18.4052 -18.4050 -18.3723 -18.2773 -18.2759 -18.1060 -18.0899
   -12.5273 -12.5251 -12.4290 -11.6078 -11.5934 -11.4447 -11.4417 -10.9497
   -10.9440  -9.9522  -9.9456  -9.6975  -9.3964  -9.3922  -9.2516  -9.2492
    -9.0627  -9.0625  -8.9463  -8.3457  -8.3410  -7.9213  -7.9212  -7.8848
    -7.8649  -7.7929  -7.6717  -7.5966  -7.1450  -7.1000  -6.9792  -6.9118
    -6.9050  -6.8843  -6.5545  -6.5465  -6.2792  -5.3762  -5.3260  -5.1647
    -5.0862  -4.8546  -4.8360  -4.7685  -4.6156  -4.6113  -4.3888  -4.3475
    -2.5368  -1.5291  -1.4976  -1.4874  -1.4714  -1.4003  -1.3833  -1.3816
    -1.3462  -1.3235  -1.3115  -1.1424   0.4554   0.8196   0.9261   1.1255
     1.2276   1.3492   1.4982   1.5904   1.6577   1.7294

          k = 0.5000-0.8660 0.0000 ( 59292 PWs)   bands (ev):

   -72.5009 -72.5006 -43.9667 -43.9654 -43.9587 -43.9583 -43.9546 -43.9543
   -21.0798 -21.0597 -20.4910 -20.4857 -19.4533 -19.4407 -19.4344 -19.4277
   -19.0199 -19.0041 -18.3574 -18.3478 -18.3378 -18.3196 -17.8154 -17.8099
   -12.0999 -12.0921 -12.0834 -12.0699 -11.8999 -11.8933 -11.3556 -11.3432
   -10.2579 -10.2528 -10.1566 -10.1524 -10.1510 -10.1469  -8.6158  -8.5753
    -8.5730  -8.5643  -8.5599  -8.5541  -7.8855  -7.8842  -7.8820  -7.8791
    -7.8439  -7.8401  -7.7975  -7.7823  -7.5172  -7.5014  -6.6336  -6.6274
    -6.3872  -6.3477  -6.3288  -6.3142  -6.2154  -6.2043  -5.7383  -5.7127
    -5.5726  -5.5574  -4.7574  -4.7423  -4.7340  -4.6881  -3.9055  -3.8925
    -2.4516  -1.6569  -1.4905  -1.4786  -1.4589  -1.3941  -1.3907  -1.3809
    -1.3569  -1.3361  -1.3244  -1.2845   0.8886   1.0318   1.0553   1.1856
     1.2202   1.3471   1.4704   1.5739   1.6158   1.6450

          k =-1.0000 0.0000 0.0000 ( 59292 PWs)   bands (ev):

   -72.5009 -72.5006 -43.9667 -43.9655 -43.9587 -43.9583 -43.9545 -43.9543
   -21.0955 -21.0417 -20.5005 -20.4801 -19.4510 -19.4421 -19.4373 -19.4206
   -19.0336 -18.9924 -18.3791 -18.3707 -18.3072 -18.3058 -17.8214 -17.8053
   -12.1163 -12.1080 -12.0610 -12.0563 -11.9055 -11.8886 -11.3702 -11.3306
   -10.2682 -10.2539 -10.1571 -10.1531 -10.1441 -10.1421  -8.6529  -8.5895
    -8.5858  -8.5435  -8.5427  -8.5143  -7.8958  -7.8953  -7.8791  -7.8754
    -7.8461  -7.8348  -7.8203  -7.7647  -7.5331  -7.4873  -6.6347  -6.6246
    -6.3864  -6.3443  -6.3311  -6.2972  -6.2284  -6.1942  -5.7548  -5.7055
    -5.5862  -5.5437  -4.8125  -4.7708  -4.6761  -4.6637  -3.9196  -3.8804
    -2.5238  -1.5386  -1.4937  -1.4873  -1.4685  -1.3940  -1.3849  -1.3833
    -1.3488  -1.3242  -1.3107  -1.1452   0.4438   0.5587   1.0328   1.0632
     1.1818   1.4218   1.5753   1.5971   1.6182   1.9394

 ------ SPIN DOWN ----------


          k = 0.1667 0.2887 0.0000 ( 59267 PWs)   bands (ev):

   -68.1318 -68.1316 -39.6370 -39.6357 -39.6229 -39.6224 -39.6183 -39.6180
   -21.2612 -20.6803 -20.6650 -20.1218 -20.1078 -19.6075 -19.5920 -19.1139
   -18.7146 -18.7013 -18.4745 -18.4622 -18.2080 -18.1023 -18.0911 -17.8637
   -12.5004 -12.2245 -12.2162 -11.8393 -11.8329 -11.6752 -11.2122 -11.2011
   -10.4078 -10.3839 -10.1368 -10.1279  -9.6069  -9.6027  -8.8452  -8.8364
    -8.8295  -8.7877  -8.7735  -8.6130  -8.2139  -8.0473  -8.0154  -7.8466
    -7.8426  -7.4556  -7.4510  -7.2833  -7.2533  -7.2270  -7.2207  -6.9798
    -6.9693  -6.5674  -6.5372  -6.1708  -6.1685  -5.8708  -5.4344  -5.2915
    -5.2716  -5.2164  -4.9208  -4.8949  -4.5036  -4.3590  -4.3452  -3.9807
    -0.3734   0.7225   1.0541   1.1881   1.3498   1.3881   1.4409   1.5088
     1.5524   1.7906   1.9220   2.0908   2.1610   2.2249   2.2763   2.3403
     2.4224   2.4571   2.5086   2.5465   2.5905   2.6047

          k = 0.1667-0.4811 0.0000 ( 59291 PWs)   bands (ev):

   -68.1318 -68.1316 -39.6369 -39.6357 -39.6229 -39.6224 -39.6183 -39.6180
   -21.1301 -20.9280 -20.7367 -20.1748 -19.8189 -19.4812 -19.3316 -19.1884
   -19.0291 -18.7936 -18.6521 -18.5603 -18.1599 -18.1076 -17.9358 -17.7378
   -12.3643 -12.1296 -12.0612 -11.9235 -11.6994 -11.6730 -11.5693 -10.9582
   -10.9057 -10.6390 -10.5400  -9.8757  -9.7097  -9.3521  -9.1273  -8.6573
    -8.6393  -8.5686  -8.4062  -8.3727  -8.1778  -8.1192  -8.0812  -8.0653
    -7.7040  -7.6398  -7.5110  -7.4905  -7.3521  -7.1869  -7.0845  -6.8595
    -6.6376  -6.3893  -6.1771  -6.1738  -5.9711  -5.9447  -5.7997  -5.7457
    -5.4679  -5.3986  -5.1974  -5.0494  -4.4352  -4.3605  -4.0904  -3.7686
    -0.3420   0.6985   1.0050   1.1057   1.1482   1.2758   1.3371   1.7498
     1.8282   1.9027   2.0315   2.0935   2.1883   2.2420   2.2753   2.3317
     2.4063   2.4536   2.4782   2.5075   2.5568   2.6246

          k = 0.1667-0.0962 0.0000 ( 59226 PWs)   bands (ev):

   -68.1318 -68.1316 -39.6370 -39.6357 -39.6229 -39.6224 -39.6183 -39.6180
   -21.3277 -20.5492 -20.3596 -20.3551 -20.0023 -19.9944 -19.8211 -18.7429
   -18.7358 -18.3915 -18.3806 -18.3697 -18.2854 -18.2717 -18.0914 -18.0873
   -12.5254 -12.5170 -12.4245 -11.5976 -11.5933 -11.4457 -11.4338 -10.9422
   -10.9403  -9.9456  -9.9425  -9.6916  -9.3940  -9.3857  -9.2461  -9.2441
    -9.0585  -9.0567  -8.9192  -8.3394  -8.3370  -7.9187  -7.9145  -7.8732
    -7.8586  -7.7872  -7.6033  -7.5931  -7.1199  -7.0981  -6.9756  -6.9048
    -6.9019  -6.8568  -6.5476  -6.5447  -6.2740  -5.3378  -5.3223  -5.1593
    -5.0815  -4.8119  -4.7926  -4.7533  -4.6256  -4.5967  -4.3500  -4.3407
    -0.4030   0.7504   1.0842   1.1056   1.2204   1.4363   1.4986   1.5600
     1.7926   1.8834   1.9558   2.0028   2.0846   2.1293   2.2778   2.3345
     2.4079   2.4405   2.4891   2.5644   2.5798   2.6053

          k =-0.5000-0.8660 0.0000 ( 59292 PWs)   bands (ev):

   -68.1318 -68.1316 -39.6370 -39.6357 -39.6229 -39.6224 -39.6183 -39.6180
   -21.0709 -21.0539 -20.4840 -20.4792 -19.4436 -19.4334 -19.4279 -19.4212
   -19.0115 -18.9987 -18.3477 -18.3384 -18.3307 -18.3155 -17.8078 -17.8029
   -12.0932 -12.0868 -12.0788 -12.0670 -11.8953 -11.8895 -11.3501 -11.3390
   -10.2525 -10.2478 -10.1508 -10.1472 -10.1459 -10.1426  -8.5810  -8.5695
    -8.5669  -8.5575  -8.5512  -8.5424  -7.8805  -7.8793  -7.8771  -7.8748
    -7.8381  -7.8347  -7.7744  -7.7630  -7.5120  -7.4978  -6.6282  -6.6230
    -6.3477  -6.3225  -6.3101  -6.2990  -6.2097  -6.1999  -5.7146  -5.6963
    -5.5667  -5.5533  -4.7306  -4.7167  -4.7119  -4.6779  -3.8846  -3.8747
    -0.2616   0.3937   1.0115   1.0695   1.4234   1.4487   1.5170   1.5528
     1.7328   1.7554   2.0220   2.0527   2.1599   2.2861   2.3414   2.3632
     2.3952   2.4518   2.4886   2.5190   2.5468   2.6404

          k =-0.1667 0.2887 0.0000 ( 59267 PWs)   bands (ev):

   -68.1318 -68.1316 -39.6370 -39.6357 -39.6229 -39.6224 -39.6183 -39.6180
   -21.2612 -20.6804 -20.6649 -20.1218 -20.1078 -19.6075 -19.5920 -19.1139
   -18.7146 -18.7012 -18.4745 -18.4622 -18.2080 -18.1023 -18.0910 -17.8637
   -12.5003 -12.2245 -12.2163 -11.8394 -11.8329 -11.6752 -11.2123 -11.2010
   -10.4078 -10.3839 -10.1368 -10.1279  -9.6069  -9.6027  -8.8452  -8.8364
    -8.8295  -8.7878  -8.7735  -8.6130  -8.2140  -8.0474  -8.0154  -7.8466
    -7.8426  -7.4556  -7.4510  -7.2833  -7.2533  -7.2270  -7.2206  -6.9799
    -6.9694  -6.5674  -6.5372  -6.1708  -6.1685  -5.8708  -5.4345  -5.2915
    -5.2716  -5.2163  -4.9208  -4.8949  -4.5037  -4.3590  -4.3451  -3.9806
    -0.3734   0.7225   1.0542   1.1881   1.3497   1.3881   1.4410   1.5088
     1.5523   1.7906   1.9219   2.0907   2.1610   2.2249   2.2763   2.3403
     2.4224   2.4575   2.5082   2.5465   2.5907   2.6045

          k = 0.3333 0.0000 0.0000 ( 59267 PWs)   bands (ev):

   -68.1318 -68.1316 -39.6370 -39.6357 -39.6229 -39.6224 -39.6183 -39.6180
   -21.2609 -20.6953 -20.6499 -20.1169 -20.1119 -19.6222 -19.5783 -19.1150
   -18.7238 -18.6894 -18.4705 -18.4675 -18.2053 -18.1158 -18.0811 -17.8633
   -12.5003 -12.2214 -12.2191 -11.8448 -11.8289 -11.6738 -11.2235 -11.1903
   -10.4069 -10.3840 -10.1436 -10.1213  -9.6107  -9.5983  -8.8477  -8.8390
    -8.8236  -8.8004  -8.7613  -8.6136  -8.2150  -8.0801  -7.9824  -7.8447
    -7.8431  -7.4587  -7.4477  -7.2794  -7.2549  -7.2327  -7.2149  -6.9761
    -6.9738  -6.5981  -6.5099  -6.1725  -6.1663  -5.8732  -5.4342  -5.2986
    -5.2603  -5.2167  -4.9152  -4.9021  -4.4993  -4.3737  -4.3354  -3.9803
    -0.3306   0.5260   1.0682   1.1641   1.3585   1.4461   1.4968   1.5148
     1.5764   1.7952   2.0181   2.1211   2.2073   2.2165   2.3031   2.3978
     2.4048   2.4492   2.5085   2.5539   2.5706   2.5727

          k =-0.1667-0.4811 0.0000 ( 59291 PWs)   bands (ev):

   -68.1318 -68.1316 -39.6369 -39.6357 -39.6229 -39.6224 -39.6183 -39.6180
   -21.1301 -20.9280 -20.7367 -20.1748 -19.8189 -19.4812 -19.3316 -19.1884
   -19.0291 -18.7936 -18.6521 -18.5603 -18.1599 -18.1076 -17.9358 -17.7378
   -12.3643 -12.1296 -12.0612 -11.9234 -11.6993 -11.6730 -11.5693 -10.9582
   -10.9057 -10.6390 -10.5400  -9.8757  -9.7097  -9.3522  -9.1274  -8.6573
    -8.6392  -8.5686  -8.4061  -8.3727  -8.1778  -8.1192  -8.0812  -8.0654
    -7.7040  -7.6399  -7.5109  -7.4905  -7.3521  -7.1868  -7.0845  -6.8595
    -6.6376  -6.3893  -6.1771  -6.1738  -5.9711  -5.9446  -5.7997  -5.7457
    -5.4680  -5.3986  -5.1974  -5.0494  -4.4352  -4.3605  -4.0904  -3.7687
    -0.3420   0.6985   1.0050   1.1057   1.1481   1.2759   1.3371   1.7498
     1.8282   1.9028   2.0314   2.0935   2.1882   2.2418   2.2754   2.3317
     2.4062   2.4535   2.4781   2.5074   2.5567   2.6237

          k = 0.5000-0.0962 0.0000 ( 59291 PWs)   bands (ev):

   -68.1318 -68.1316 -39.6370 -39.6357 -39.6230 -39.6224 -39.6183 -39.6180
   -21.1285 -20.9327 -20.7336 -20.1737 -19.8192 -19.4820 -19.3354 -19.1855
   -19.0296 -18.7936 -18.6465 -18.5641 -18.1526 -18.1171 -17.9341 -17.7377
   -12.3638 -12.1299 -12.0598 -11.9261 -11.7073 -11.6633 -11.5709 -10.9585
   -10.9043 -10.6380 -10.5415  -9.8742  -9.7102  -9.3528  -9.1270  -8.6521
    -8.6396  -8.5674  -8.4086  -8.3886  -8.1764  -8.1088  -8.0899  -8.0575
    -7.7017  -7.6403  -7.5103  -7.4913  -7.3490  -7.1878  -7.0849  -6.8601
    -6.6378  -6.3921  -6.1860  -6.1739  -5.9635  -5.9443  -5.7993  -5.7466
    -5.4688  -5.3974  -5.1872  -5.0573  -4.4234  -4.3749  -4.0883  -3.7688
    -0.2626   0.3987   1.0009   1.1016   1.1578   1.2916   1.6030   1.7407
     1.7814   1.9733   2.0376   2.1352   2.1834   2.2373   2.3303   2.3589
     2.4179   2.4564   2.5003   2.5182   2.5693   2.6155

          k =-0.3333-0.3849 0.0000 ( 59291 PWs)   bands (ev):

   -68.1318 -68.1316 -39.6370 -39.6357 -39.6229 -39.6224 -39.6183 -39.6180
   -21.1290 -20.9311 -20.7348 -20.1736 -19.8201 -19.4811 -19.3325 -19.1874
   -19.0313 -18.7927 -18.6474 -18.5635 -18.1539 -18.1156 -17.9342 -17.7378
   -12.3640 -12.1288 -12.0613 -11.9254 -11.6998 -11.6716 -11.5701 -10.9583
   -10.9041 -10.6376 -10.5421  -9.8747  -9.7103  -9.3525  -9.1273  -8.6536
    -8.6388  -8.5687  -8.4070  -8.3829  -8.1776  -8.1126  -8.0814  -8.0665
    -7.7020  -7.6390  -7.5150  -7.4873  -7.3488  -7.1879  -7.0852  -6.8630
    -6.6365  -6.3890  -6.1786  -6.1751  -5.9689  -5.9437  -5.7995  -5.7510
    -5.4686  -5.3954  -5.1871  -5.0571  -4.4246  -4.3740  -4.0880  -3.7688
    -0.2928   0.4880   0.9998   1.0839   1.1875   1.2795   1.4874   1.7528
     1.8968   1.9596   2.0147   2.0635   2.1626   2.2653   2.3086   2.3616
     2.4035   2.4551   2.4785   2.5295   2.5682   2.6021

          k = 0.5000 0.0962 0.0000 ( 59291 PWs)   bands (ev):

   -68.1318 -68.1316 -39.6370 -39.6357 -39.6230 -39.6224 -39.6183 -39.6180
   -21.1285 -20.9327 -20.7336 -20.1737 -19.8192 -19.4820 -19.3354 -19.1855
   -19.0296 -18.7936 -18.6465 -18.5641 -18.1526 -18.1171 -17.9341 -17.7377
   -12.3638 -12.1299 -12.0597 -11.9261 -11.7073 -11.6633 -11.5709 -10.9585
   -10.9043 -10.6380 -10.5415  -9.8742  -9.7103  -9.3528  -9.1269  -8.6521
    -8.6396  -8.5674  -8.4086  -8.3886  -8.1764  -8.1088  -8.0898  -8.0574
    -7.7017  -7.6402  -7.5103  -7.4914  -7.3490  -7.1879  -7.0848  -6.8601
    -6.6377  -6.3921  -6.1860  -6.1738  -5.9635  -5.9443  -5.7993  -5.7466
    -5.4688  -5.3974  -5.1872  -5.0572  -4.4234  -4.3749  -4.0883  -3.7688
    -0.2626   0.3987   1.0010   1.1016   1.1578   1.2915   1.6030   1.7406
     1.7814   1.9733   2.0377   2.1352   2.1832   2.2374   2.3303   2.3589
     2.4179   2.4564   2.5007   2.5178   2.5708   2.6159

          k =-0.3333 0.3849 0.0000 ( 59291 PWs)   bands (ev):

   -68.1318 -68.1316 -39.6370 -39.6357 -39.6230 -39.6224 -39.6183 -39.6180
   -21.1290 -20.9311 -20.7348 -20.1736 -19.8201 -19.4811 -19.3325 -19.1874
   -19.0313 -18.7927 -18.6473 -18.5635 -18.1539 -18.1156 -17.9342 -17.7378
   -12.3640 -12.1288 -12.0613 -11.9254 -11.6998 -11.6716 -11.5701 -10.9583
   -10.9041 -10.6375 -10.5421  -9.8748  -9.7103  -9.3525  -9.1273  -8.6536
    -8.6388  -8.5686  -8.4071  -8.3829  -8.1776  -8.1126  -8.0814  -8.0664
    -7.7019  -7.6390  -7.5150  -7.4872  -7.3488  -7.1879  -7.0853  -6.8630
    -6.6365  -6.3890  -6.1786  -6.1752  -5.9689  -5.9438  -5.7994  -5.7510
    -5.4685  -5.3954  -5.1871  -5.0571  -4.4246  -4.3740  -4.0880  -3.7688
    -0.2928   0.4880   0.9998   1.0839   1.1875   1.2795   1.4874   1.7528
     1.8968   1.9596   2.0146   2.0635   2.1627   2.2652   2.3085   2.3617
     2.4037   2.4555   2.4786   2.5291   2.5684   2.6031

          k =-0.1667-0.0962 0.0000 ( 59226 PWs)   bands (ev):

   -68.1318 -68.1316 -39.6370 -39.6357 -39.6229 -39.6224 -39.6183 -39.6180
   -21.3277 -20.5491 -20.3596 -20.3551 -20.0023 -19.9944 -19.8211 -18.7429
   -18.7358 -18.3915 -18.3806 -18.3696 -18.2854 -18.2717 -18.0914 -18.0873
   -12.5254 -12.5170 -12.4245 -11.5976 -11.5933 -11.4457 -11.4338 -10.9422
   -10.9403  -9.9456  -9.9426  -9.6916  -9.3939  -9.3857  -9.2461  -9.2441
    -9.0585  -9.0568  -8.9192  -8.3395  -8.3371  -7.9187  -7.9145  -7.8732
    -7.8586  -7.7872  -7.6033  -7.5931  -7.1199  -7.0981  -6.9756  -6.9047
    -6.9019  -6.8568  -6.5475  -6.5447  -6.2741  -5.3378  -5.3223  -5.1592
    -5.0816  -4.8119  -4.7926  -4.7533  -4.6255  -4.5967  -4.3500  -4.3407
    -0.4030   0.7504   1.0842   1.1056   1.2205   1.4363   1.4987   1.5600
     1.7926   1.8834   1.9558   2.0028   2.0846   2.1294   2.2778   2.3345
     2.4079   2.4406   2.4891   2.5644   2.5797   2.6036

          k =-0.0000-0.1925 0.0000 ( 59226 PWs)   bands (ev):

   -68.1318 -68.1316 -39.6369 -39.6357 -39.6229 -39.6224 -39.6183 -39.6180
   -21.3278 -20.5460 -20.3695 -20.3506 -20.0034 -19.9888 -19.8234 -18.7462
   -18.7304 -18.3944 -18.3937 -18.3659 -18.2730 -18.2711 -18.0979 -18.0838
   -12.5223 -12.5204 -12.4242 -11.6026 -11.5895 -11.4401 -11.4372 -10.9444
   -10.9393  -9.9468  -9.9412  -9.6920  -9.3916  -9.3874  -9.2463  -9.2439
    -9.0582  -9.0576  -8.9195  -8.3402  -8.3356  -7.9169  -7.9164  -7.8666
    -7.8540  -7.7882  -7.6315  -7.5821  -7.1192  -7.0854  -6.9746  -6.9069
    -6.9008  -6.8634  -6.5495  -6.5424  -6.2744  -5.3457  -5.3102  -5.1595
    -5.0812  -4.8202  -4.8058  -4.7506  -4.6044  -4.5987  -4.3626  -4.3328
    -0.4198   0.8799   1.0888   1.0985   1.2276   1.3841   1.5036   1.5129
     1.7666   1.8706   1.9082   1.9678   2.0135   2.1630   2.2724   2.3463
     2.3693   2.4374   2.4946   2.5393   2.6160   2.6905

          k = 0.5000-0.8660 0.0000 ( 59292 PWs)   bands (ev):

   -68.1318 -68.1316 -39.6370 -39.6357 -39.6229 -39.6224 -39.6183 -39.6180
   -21.0709 -21.0539 -20.4840 -20.4792 -19.4436 -19.4334 -19.4278 -19.4212
   -19.0115 -18.9986 -18.3478 -18.3384 -18.3306 -18.3155 -17.8078 -17.8029
   -12.0933 -12.0869 -12.0787 -12.0669 -11.8953 -11.8895 -11.3502 -11.3389
   -10.2525 -10.2479 -10.1508 -10.1472 -10.1459 -10.1426  -8.5810  -8.5696
    -8.5670  -8.5574  -8.5511  -8.5424  -7.8804  -7.8793  -7.8771  -7.8748
    -7.8382  -7.8347  -7.7744  -7.7630  -7.5121  -7.4979  -6.6281  -6.6229
    -6.3477  -6.3225  -6.3101  -6.2990  -6.2097  -6.1997  -5.7147  -5.6963
    -5.5668  -5.5534  -4.7307  -4.7167  -4.7118  -4.6779  -3.8846  -3.8747
    -0.2616   0.3937   1.0115   1.0696   1.4234   1.4486   1.5170   1.5528
     1.7327   1.7556   2.0222   2.0526   2.1599   2.2862   2.3413   2.3634
     2.3953   2.4523   2.4881   2.5189   2.5469   2.6399

          k =-1.0000 0.0000 0.0000 ( 59292 PWs)   bands (ev):

   -68.1318 -68.1316 -39.6370 -39.6357 -39.6229 -39.6224 -39.6183 -39.6180
   -21.0845 -21.0385 -20.4920 -20.4741 -19.4422 -19.4346 -19.4301 -19.4154
   -19.0225 -18.9890 -18.3652 -18.3575 -18.3053 -18.3045 -17.8128 -17.7988
   -12.1089 -12.1007 -12.0591 -12.0542 -11.9006 -11.8851 -11.3632 -11.3274
   -10.2608 -10.2488 -10.1513 -10.1485 -10.1399 -10.1384  -8.6094  -8.5825
    -8.5783  -8.5412  -8.5408  -8.5083  -7.8896  -7.8883  -7.8748  -7.8711
    -7.8314  -7.8313  -7.7942  -7.7506  -7.5260  -7.4853  -6.6293  -6.6205
    -6.3484  -6.3228  -6.3119  -6.2860  -6.2209  -6.1906  -5.7271  -5.6884
    -5.5784  -5.5417  -4.7693  -4.7367  -4.6704  -4.6614  -3.8944  -3.8661
    -0.3623   0.8327   1.0466   1.0536   1.2646   1.3702   1.3864   1.5875
     1.6186   1.7269   1.8848   2.1228   2.1601   2.2432   2.2695   2.3293
     2.3879   2.4924   2.5058   2.5587   2.6283   2.6299

     the Fermi energy is    -0.8341 ev

!    total energy              =   -1133.81562384 Ry

     total all-electron energy =     -6753.491327 Ry
     estimated scf accuracy    <       0.00000010 Ry
     smearing contrib. (-TS)   =      -0.00000000 Ry
     internal energy E=F+TS    =   -1133.81562384 Ry

     The total energy is F=E-TS. E is the sum of the following terms:
     one-electron contribution =   -3920.95960622 Ry
     hartree contribution      =    1989.05427360 Ry
     xc contribution           =    -186.20029216 Ry
     ewald contribution        =    1343.65944792 Ry
     DFT-D3 Dispersion         =      -0.14082835 Ry
     one-center paw contrib.   =    -359.22861863 Ry

     total magnetization       =    12.00 Bohr mag/cell
     absolute magnetization    =    12.00 Bohr mag/cell

     convergence has been achieved in  12 iterations

     Writing output data file ./mytmp/Crdimer0.3-0.2.save/
 
     init_run     :     18.88s CPU     20.10s WALL (       1 calls)
     electrons    :    482.36s CPU    522.82s WALL (       1 calls)

     Called by init_run:
     wfcinit      :     13.80s CPU     14.52s WALL (       1 calls)
     potinit      :      1.54s CPU      1.61s WALL (       1 calls)
     hinit0       :      1.53s CPU      1.60s WALL (       1 calls)

     Called by electrons:
     c_bands      :    383.96s CPU    407.75s WALL (      12 calls)
     sum_band     :     69.50s CPU     79.43s WALL (      12 calls)
     v_of_rho     :      6.44s CPU      7.18s WALL (      13 calls)
     newd         :     15.84s CPU     21.83s WALL (      13 calls)
     PAW_pot      :      6.43s CPU      6.51s WALL (      13 calls)
     mix_rho      :      0.84s CPU      0.92s WALL (      12 calls)

     Called by c_bands:
     init_us_2    :      4.35s CPU      4.40s WALL (     750 calls)
     cegterg      :    373.35s CPU    397.05s WALL (     360 calls)

     Called by *egterg:
     cdiaghg      :     23.17s CPU     36.80s WALL (    2450 calls)
     h_psi        :    222.75s CPU    231.51s WALL (    2480 calls)
     s_psi        :     24.67s CPU     24.77s WALL (    2480 calls)
     g_psi        :      0.57s CPU      0.58s WALL (    2090 calls)

     Called by h_psi:
     h_psi:calbec :     26.40s CPU     27.07s WALL (    2480 calls)
     vloc_psi     :    169.33s CPU    177.24s WALL (    2480 calls)
     add_vuspsi   :     25.06s CPU     25.22s WALL (    2480 calls)

     General routines
     calbec       :     34.68s CPU     35.58s WALL (    2840 calls)
     fft          :      8.11s CPU     12.17s WALL (     319 calls)
     ffts         :      0.12s CPU      0.13s WALL (      50 calls)
     fftw         :    172.88s CPU    180.90s WALL (  226502 calls)
     interpolate  :      0.37s CPU      0.42s WALL (      26 calls)
 
     Parallel routines
     fft_scatt_xy :     27.19s CPU     28.23s WALL (  226871 calls)
     fft_scatt_yz :     72.20s CPU     80.02s WALL (  226871 calls)
 
     PWSCF        :   8m23.31s CPU   9m 7.63s WALL

 
   This run was terminated on:   0:48: 3  30Mar2021            

=------------------------------------------------------------------------------=
   JOB DONE.
=------------------------------------------------------------------------------=
