
     Program PWSCF v.6.7MaX starts on 29Mar2021 at 22:51:20 

     This program is part of the open-source Quantum ESPRESSO suite
     for quantum simulation of materials; please cite
         "P. Giannozzi et al., J. Phys.:Condens. Matter 21 395502 (2009);
         "P. Giannozzi et al., J. Phys.:Condens. Matter 29 465901 (2017);
          URL http://www.quantum-espresso.org", 
     in publications or presentations arising from this work. More details at
     http://www.quantum-espresso.org/quote

     Parallel version (MPI), running on    48 processors

     MPI processes distributed on     1 nodes
     R & G space division:  proc/nbgrp/npool/nimage =      48
     Reading input from Crdimer0.26-0.2.scf.in

     Current dimensions of program PWSCF are:
     Max number of different atomic species (ntypx) = 10
     Max number of k-points (npk) =  40000
     Max angular momentum in pseudopotentials (lmaxx) =  3
     file N.pbe-n-kjpaw_psl.1.0.0.UPF: wavefunction(s)  2S renormalized
     file Cr.pbe-spn-kjpaw_psl.1.0.0.UPF: wavefunction(s)  3S 3P 3D renormalized
     file Cr.pbe-spn-kjpaw_psl.1.0.0.UPF: wavefunction(s)  3S 3P 3D renormalized

     --------------------------------------------
     Parameters for DFT-D3 Dispersion Correction:
     --------------------------------------------
       Reference C6 values for interpolation: 

         atom   Coordination number   C6
         B          0.000           214.36
         B          0.971           150.74
         B          1.944           106.23
         B          2.913            62.89
         B          4.586            56.06
         N          0.000            50.54
         N          0.994            44.25
         N          2.014            39.35
         N          2.990            31.16
         Cr1        0.000          1381.48
         Cr1        1.827           571.38
         Cr1       10.619           306.69
         Cr2        0.000          1381.48
         Cr2        1.827           571.38
         Cr2       10.619           306.69

       Values used:

         atom   Coordination number  R0_AB[au]  C6      C8
         B          3.355            3.039     62.88   2505.49
         B          3.335            3.039     62.89   2506.00
         B          3.337            3.039     62.89   2505.97
         B          3.338            3.039     62.89   2505.95
         B          3.350            3.039     62.88   2505.62
         B          3.335            3.039     62.89   2506.01
         N          3.137            2.478     31.22    688.67
         N          3.134            2.478     31.22    688.69
         N          3.141            2.478     31.22    688.63
         N          3.143            2.478     31.21    688.62
         N          3.136            2.478     31.22    688.68
         N          3.134            2.478     31.22    688.69
         N          3.149            2.478     31.21    688.57
         N          3.134            2.478     31.22    688.69
         N          3.134            2.478     31.22    688.70
         B          3.337            3.039     62.89   2505.96
         B          3.335            3.039     62.89   2506.00
         B          3.335            3.039     62.89   2506.01
         B          3.350            3.039     62.88   2505.62
         B          3.355            3.039     62.88   2505.49
         B          3.337            3.039     62.89   2505.96
         N          3.149            2.478     31.21    688.57
         B          3.336            3.039     62.89   2505.99
         B          3.336            3.039     62.89   2505.99
         B          3.344            3.039     62.89   2505.78
         N          3.134            2.478     31.22    688.69
         N          3.134            2.478     31.22    688.69
         N          3.135            2.478     31.22    688.69
         N          3.135            2.478     31.22    688.69
         N          3.141            2.478     31.22    688.63
         N          3.143            2.478     31.21    688.62
         B          3.344            3.039     62.89   2505.78
         Cr1        0.093            3.252   1381.48 127494.84
         Cr2        0.093            3.252   1381.48 127494.84

         Molecular C6 ( Ry / a.u.^6 ) =     79165.01


     Subspace diagonalization in iterative solution of the eigenvalue problem:
     one sub-group per band group will be used
     scalapack distributed-memory algorithm (size of sub-group:  6*  6 procs)

 
     Parallelization info
     --------------------
     sticks:   dense  smooth     PW     G-vecs:    dense   smooth      PW
     Min         235      98     26                36277     9874    1408
     Max         236      99     27                36282     9883    1425
     Sum       11311    4741   1285              1741401   474235   68095
 


     bravais-lattice index     =            4
     lattice parameter (alat)  =      18.9275  a.u.
     unit-cell volume          =   10553.3021 (a.u.)^3
     number of atoms/cell      =           34
     number of atomic types    =            4
     number of electrons       =       156.00
     number of Kohn-Sham states=           94
     kinetic-energy cutoff     =      48.0000  Ry
     charge density cutoff     =     457.0000  Ry
     scf convergence threshold =      1.0E-07
     mixing beta               =       0.5000
     number of iterations used =            8  plain     mixing
     Exchange-correlation= SLA  PW   PBX  PBC
                           (   1   4   3   4   0   0   0)

     celldm(1)=  18.927497  celldm(2)=   0.000000  celldm(3)=   1.797125
     celldm(4)=   0.000000  celldm(5)=   0.000000  celldm(6)=   0.000000

     crystal axes: (cart. coord. in units of alat)
               a(1) = (   1.000000   0.000000   0.000000 )  
               a(2) = (  -0.500000   0.866025   0.000000 )  
               a(3) = (   0.000000   0.000000   1.797125 )  

     reciprocal axes: (cart. coord. in units 2 pi/alat)
               b(1) = (  1.000000  0.577350  0.000000 )  
               b(2) = (  0.000000  1.154701  0.000000 )  
               b(3) = (  0.000000  0.000000  0.556444 )  


     PseudoPot. # 1 for B  read from file:
     /home/sf05/q-e-qe-6.7MaX-Release/pseudo/B.pbe-n-kjpaw_psl.1.0.0.UPF
     MD5 check sum: d9c678ba5d3b2fd7b74e61139c9288d8
     Pseudo is Projector augmented-wave + core cor, Zval =  3.0
     Generated using "atomic" code by A. Dal Corso  v.5.1.2
     Shape of augmentation charge: PSQ
     Using radial grid of 1059 points,  4 beta functions with: 
                l(1) =   0
                l(2) =   0
                l(3) =   1
                l(4) =   1
     Q(r) pseudized with 0 coefficients 


     PseudoPot. # 2 for N  read from file:
     /home/sf05/q-e-qe-6.7MaX-Release/pseudo/N.pbe-n-kjpaw_psl.1.0.0.UPF
     MD5 check sum: e0e4e94a9c4025c5b51bd7d8793849bd
     Pseudo is Projector augmented-wave + core cor, Zval =  5.0
     Generated using "atomic" code by A. Dal Corso  v.5.1.2
     Shape of augmentation charge: PSQ
     Using radial grid of 1085 points,  4 beta functions with: 
                l(1) =   0
                l(2) =   0
                l(3) =   1
                l(4) =   1
     Q(r) pseudized with 0 coefficients 


     PseudoPot. # 3 for Cr read from file:
     /home/sf05/q-e-qe-6.7MaX-Release/pseudo/Cr.pbe-spn-kjpaw_psl.1.0.0.UPF
     MD5 check sum: 198f1a2427a48552563eee314eba32ba
     Pseudo is Projector augmented-wave + core cor, Zval = 14.0
     Generated using &quot;atomic&quot; code by A. Dal Corso  v.6.3
     Shape of augmentation charge: PSQ
     Using radial grid of 1183 points,  6 beta functions with: 
                l(1) =   0
                l(2) =   0
                l(3) =   1
                l(4) =   1
                l(5) =   2
                l(6) =   2
     Q(r) pseudized with 0 coefficients 


     PseudoPot. # 4 for Cr read from file:
     /home/sf05/q-e-qe-6.7MaX-Release/pseudo/Cr.pbe-spn-kjpaw_psl.1.0.0.UPF
     MD5 check sum: 198f1a2427a48552563eee314eba32ba
     Pseudo is Projector augmented-wave + core cor, Zval = 14.0
     Generated using &quot;atomic&quot; code by A. Dal Corso  v.6.3
     Shape of augmentation charge: PSQ
     Using radial grid of 1183 points,  6 beta functions with: 
                l(1) =   0
                l(2) =   0
                l(3) =   1
                l(4) =   1
                l(5) =   2
                l(6) =   2
     Q(r) pseudized with 0 coefficients 


     atomic species   valence    mass     pseudopotential
        B              3.00    10.81100     B ( 1.00)
        N              5.00    14.00674     N ( 1.00)
        Cr1           14.00    51.99610     Cr( 1.00)
        Cr2           14.00    51.99610     Cr( 1.00)

     Starting magnetic structure 
     atomic species   magnetization
        B            0.000
        N            0.000
        Cr1          1.000
        Cr2          1.000

     No symmetry found



   Cartesian axes

     site n.     atom                  positions (alat units)
         1           B   tau(   1) = (  -0.1250000   0.2165064   0.8985623  )
         2           B   tau(   2) = (   0.3750000   0.6495191   0.8985623  )
         3           B   tau(   3) = (   0.2500000   0.0000000   0.8985623  )
         4           B   tau(   4) = (   0.7500000   0.0000000   0.8985623  )
         5           B   tau(   5) = (   0.1250000   0.2165064   0.8985623  )
         6           B   tau(   6) = (  -0.3750000   0.6495191   0.8985623  )
         7           N   tau(   7) = (   0.7500005   0.2886748   0.8985623  )
         8           N   tau(   8) = (   0.3750005   0.5051812   0.8985623  )
         9           N   tau(   9) = (   0.3750005   0.0721685   0.8985623  )
        10           N   tau(  10) = (   0.6250005   0.0721685   0.8985623  )
        11           N   tau(  11) = (   0.2500005   0.2886748   0.8985623  )
        12           N   tau(  12) = (   0.6250005   0.5051812   0.8985623  )
        13           N   tau(  13) = (   0.0000005   0.2886748   0.8985623  )
        14           N   tau(  14) = (   0.2500005   0.7216875   0.8985623  )
        15           N   tau(  15) = (  -0.2499995   0.7216875   0.8985623  )
        16           B   tau(  16) = (   0.0000000   0.4330127   0.8985623  )
        17           B   tau(  17) = (   0.1250000   0.6495191   0.8985623  )
        18           B   tau(  18) = (  -0.1250000   0.6495191   0.8985623  )
        19           B   tau(  19) = (   0.3750000   0.2165064   0.8985623  )
        20           B   tau(  20) = (   0.6250000   0.2165064   0.8985623  )
        21           B   tau(  21) = (   0.5000000   0.4330127   0.8985623  )
        22           N   tau(  22) = (   0.5000005   0.2886748   0.8985623  )
        23           B   tau(  23) = (  -0.2500000   0.4330127   0.8985623  )
        24           B   tau(  24) = (   0.2500000   0.4330127   0.8985623  )
        25           B   tau(  25) = (   0.5000000   0.0000000   0.8985623  )
        26           N   tau(  26) = (  -0.1249995   0.5051812   0.8985623  )
        27           N   tau(  27) = (   0.1250005   0.5051812   0.8985623  )
        28           N   tau(  28) = (   0.0000005   0.7216875   0.8985623  )
        29           N   tau(  29) = (   0.5000005   0.7216875   0.8985623  )
        30           N   tau(  30) = (   0.1250005   0.0721685   0.8985623  )
        31           N   tau(  31) = (   0.8750005   0.0721685   0.8985623  )
        32           B   tau(  32) = (   0.0000000   0.0000000   0.8985623  )
        33           Cr1 tau(  33) = (   0.5100000   0.1732051   1.2040735  )
        34           Cr2 tau(  34) = (  -0.0100000   0.1732051   1.2040735  )

     number of k points=    15  Gaussian smearing, width (Ry)=  0.0000
                       cart. coord. in units 2pi/alat
        k(    1) = (   0.1666667   0.2886751   0.0000000), wk =   0.0740741
        k(    2) = (   0.1666667  -0.4811252   0.0000000), wk =   0.0740741
        k(    3) = (   0.1666667  -0.0962250   0.0000000), wk =   0.0740741
        k(    4) = (  -0.5000000  -0.8660254   0.0000000), wk =   0.0370370
        k(    5) = (  -0.1666667   0.2886751   0.0000000), wk =   0.0740741
        k(    6) = (   0.3333333   0.0000000   0.0000000), wk =   0.0740741
        k(    7) = (  -0.1666667  -0.4811252   0.0000000), wk =   0.0740741
        k(    8) = (   0.5000000  -0.0962250   0.0000000), wk =   0.0740741
        k(    9) = (  -0.3333333  -0.3849002   0.0000000), wk =   0.0740741
        k(   10) = (   0.5000000   0.0962250   0.0000000), wk =   0.0740741
        k(   11) = (  -0.3333333   0.3849002   0.0000000), wk =   0.0740741
        k(   12) = (  -0.1666667  -0.0962250   0.0000000), wk =   0.0740741
        k(   13) = (  -0.0000000  -0.1924501   0.0000000), wk =   0.0740741
        k(   14) = (   0.5000000  -0.8660254   0.0000000), wk =   0.0370370
        k(   15) = (  -1.0000000   0.0000000   0.0000000), wk =   0.0370370

     Dense  grid:  1741401 G-vectors     FFT dimensions: ( 135, 135, 240)

     Smooth grid:   474235 G-vectors     FFT dimensions: (  90,  90, 160)

     Estimated max dynamical RAM per process >     218.62 MB

     Estimated total dynamical RAM >      10.25 GB
     Generating pointlists ...
     new r_m :   0.0595 (alat units)  1.1269 (a.u.) for type    1
     new r_m :   0.0595 (alat units)  1.1269 (a.u.) for type    2
     new r_m :   0.1348 (alat units)  2.5512 (a.u.) for type    3
     new r_m :   0.1348 (alat units)  2.5512 (a.u.) for type    4

     Initial potential from superposition of free atoms

     starting charge  155.99382, renormalised to  156.00000

     negative rho (up, down):  6.510E-03 4.655E-04
     Starting wfcs are  148 randomized atomic wfcs
     Checking if some PAW data can be deallocated... 

     total cpu time spent up to now is       20.2 secs

     Self-consistent Calculation

     iteration #  1     ecut=    48.00 Ry     beta= 0.50
     Davidson diagonalization with overlap
     ethr =  1.00E-02,  avg # of iterations =  2.9

     negative rho (up, down):  4.703E-03 2.956E-03

     total cpu time spent up to now is       60.7 secs

     total energy              =   -1130.76831095 Ry
     estimated scf accuracy    <      11.37158561 Ry

     total magnetization       =    12.00 Bohr mag/cell
     absolute magnetization    =    12.16 Bohr mag/cell

     iteration #  2     ecut=    48.00 Ry     beta= 0.50
     Davidson diagonalization with overlap
     ethr =  7.29E-03,  avg # of iterations =  2.7

     negative rho (up, down):  6.997E-03 1.075E-02

     total cpu time spent up to now is       98.4 secs

     total energy              =   -1133.10507528 Ry
     estimated scf accuracy    <       3.13110423 Ry

     total magnetization       =    12.00 Bohr mag/cell
     absolute magnetization    =    12.00 Bohr mag/cell

     iteration #  3     ecut=    48.00 Ry     beta= 0.50
     Davidson diagonalization with overlap
     ethr =  2.01E-03,  avg # of iterations =  6.7

     negative rho (up, down):  3.439E-03 6.033E-03

     total cpu time spent up to now is      135.9 secs

     total energy              =   -1133.64225463 Ry
     estimated scf accuracy    <       0.62111249 Ry

     total magnetization       =    12.00 Bohr mag/cell
     absolute magnetization    =    12.05 Bohr mag/cell

     iteration #  4     ecut=    48.00 Ry     beta= 0.50
     Davidson diagonalization with overlap
     ethr =  3.98E-04,  avg # of iterations =  7.6

     negative rho (up, down):  6.849E-03 1.401E-02

     total cpu time spent up to now is      174.1 secs

     total energy              =   -1133.79416318 Ry
     estimated scf accuracy    <       0.24991869 Ry

     total magnetization       =    12.00 Bohr mag/cell
     absolute magnetization    =    12.01 Bohr mag/cell

     iteration #  5     ecut=    48.00 Ry     beta= 0.50
     Davidson diagonalization with overlap
     ethr =  1.60E-04,  avg # of iterations =  9.2

     negative rho (up, down):  4.478E-03 9.691E-03

     total cpu time spent up to now is      213.6 secs

     total energy              =   -1133.80813775 Ry
     estimated scf accuracy    <       0.01720490 Ry

     total magnetization       =    12.00 Bohr mag/cell
     absolute magnetization    =    12.00 Bohr mag/cell

     iteration #  6     ecut=    48.00 Ry     beta= 0.50
     Davidson diagonalization with overlap
     c_bands:  1 eigenvalues not converged
     c_bands:  1 eigenvalues not converged
     c_bands:  2 eigenvalues not converged
     c_bands:  5 eigenvalues not converged
     c_bands:  1 eigenvalues not converged
     c_bands:  4 eigenvalues not converged
     c_bands:  3 eigenvalues not converged
     c_bands:  3 eigenvalues not converged
     ethr =  1.10E-05,  avg # of iterations = 14.3

     negative rho (up, down):  3.351E-03 7.816E-03

     total cpu time spent up to now is      270.0 secs

     total energy              =   -1133.81049865 Ry
     estimated scf accuracy    <       0.00427764 Ry

     total magnetization       =    12.00 Bohr mag/cell
     absolute magnetization    =    12.01 Bohr mag/cell

     iteration #  7     ecut=    48.00 Ry     beta= 0.50
     Davidson diagonalization with overlap
     c_bands:  2 eigenvalues not converged
     ethr =  2.74E-06,  avg # of iterations =  9.3

     negative rho (up, down):  3.025E-03 7.564E-03

     total cpu time spent up to now is      314.7 secs

     total energy              =   -1133.81148050 Ry
     estimated scf accuracy    <       0.00029996 Ry

     total magnetization       =    12.00 Bohr mag/cell
     absolute magnetization    =    12.00 Bohr mag/cell

     iteration #  8     ecut=    48.00 Ry     beta= 0.50
     Davidson diagonalization with overlap
     ethr =  1.92E-07,  avg # of iterations =  4.7

     negative rho (up, down):  2.892E-03 7.365E-03

     total cpu time spent up to now is      350.9 secs

     total energy              =   -1133.81154869 Ry
     estimated scf accuracy    <       0.00005684 Ry

     total magnetization       =    12.00 Bohr mag/cell
     absolute magnetization    =    12.00 Bohr mag/cell

     iteration #  9     ecut=    48.00 Ry     beta= 0.50
     Davidson diagonalization with overlap
     ethr =  3.64E-08,  avg # of iterations =  2.6

     negative rho (up, down):  2.854E-03 7.330E-03

     total cpu time spent up to now is      388.3 secs

     total energy              =   -1133.81161203 Ry
     estimated scf accuracy    <       0.00000624 Ry

     total magnetization       =    12.00 Bohr mag/cell
     absolute magnetization    =    12.00 Bohr mag/cell

     iteration # 10     ecut=    48.00 Ry     beta= 0.50
     Davidson diagonalization with overlap
     ethr =  4.00E-09,  avg # of iterations =  4.5

     negative rho (up, down):  2.842E-03 7.328E-03

     total cpu time spent up to now is      424.7 secs

     total energy              =   -1133.81163746 Ry
     estimated scf accuracy    <       0.00000243 Ry

     total magnetization       =    12.00 Bohr mag/cell
     absolute magnetization    =    12.00 Bohr mag/cell

     iteration # 11     ecut=    48.00 Ry     beta= 0.50
     Davidson diagonalization with overlap
     ethr =  1.56E-09,  avg # of iterations =  2.7

     negative rho (up, down):  2.838E-03 7.329E-03

     total cpu time spent up to now is      462.6 secs

     total energy              =   -1133.81164512 Ry
     estimated scf accuracy    <       0.00000024 Ry

     total magnetization       =    12.00 Bohr mag/cell
     absolute magnetization    =    12.00 Bohr mag/cell

     iteration # 12     ecut=    48.00 Ry     beta= 0.50
     Davidson diagonalization with overlap
     ethr =  1.52E-10,  avg # of iterations =  4.9

     negative rho (up, down):  2.836E-03 7.333E-03
 
     Magnetic moment per site:
     atom:    1    charge:    0.8806    magn:    0.0002    constr:    0.0000
     atom:    2    charge:    0.8803    magn:    0.0001    constr:    0.0000
     atom:    3    charge:    0.8804    magn:    0.0011    constr:    0.0000
     atom:    4    charge:    0.8804    magn:    0.0013    constr:    0.0000
     atom:    5    charge:    0.8805    magn:    0.0002    constr:    0.0000
     atom:    6    charge:    0.8803    magn:    0.0001    constr:    0.0000
     atom:    7    charge:    2.8608    magn:    0.0042    constr:    0.0000
     atom:    8    charge:    2.8609    magn:    0.0004    constr:    0.0000
     atom:    9    charge:    2.8606    magn:    0.0060    constr:    0.0000
     atom:   10    charge:    2.8606    magn:    0.0070    constr:    0.0000
     atom:   11    charge:    2.8609    magn:    0.0031    constr:    0.0000
     atom:   12    charge:    2.8609    magn:    0.0004    constr:    0.0000
     atom:   13    charge:    2.8596    magn:    0.0088    constr:    0.0000
     atom:   14    charge:    2.8599    magn:    0.0004    constr:    0.0000
     atom:   15    charge:    2.8599    magn:    0.0004    constr:    0.0000
     atom:   16    charge:    0.8801    magn:    0.0009    constr:    0.0000
     atom:   17    charge:    0.8800    magn:    0.0001    constr:    0.0000
     atom:   18    charge:    0.8800    magn:    0.0001    constr:    0.0000
     atom:   19    charge:    0.8799    magn:    0.0002    constr:    0.0000
     atom:   20    charge:    0.8800    magn:    0.0002    constr:    0.0000
     atom:   21    charge:    0.8798    magn:    0.0009    constr:    0.0000
     atom:   22    charge:    2.8609    magn:    0.0088    constr:    0.0000
     atom:   23    charge:    0.8799    magn:    0.0002    constr:    0.0000
     atom:   24    charge:    0.8799    magn:    0.0002    constr:    0.0000
     atom:   25    charge:    0.8800    magn:    0.0001    constr:    0.0000
     atom:   26    charge:    2.8598    magn:    0.0004    constr:    0.0000
     atom:   27    charge:    2.8598    magn:    0.0004    constr:    0.0000
     atom:   28    charge:    2.8598    magn:    0.0010    constr:    0.0000
     atom:   29    charge:    2.8596    magn:    0.0010    constr:    0.0000
     atom:   30    charge:    2.8593    magn:    0.0060    constr:    0.0000
     atom:   31    charge:    2.8593    magn:    0.0070    constr:    0.0000
     atom:   32    charge:    0.8803    magn:    0.0001    constr:    0.0000
     atom:   33    charge:   12.9315    magn:    4.9138    constr:    0.0000
     atom:   34    charge:   12.9316    magn:    4.9139    constr:    0.0000

     total cpu time spent up to now is      498.7 secs

     End of self-consistent calculation

 ------ SPIN UP ------------


          k = 0.1667 0.2887 0.0000 ( 59267 PWs)   bands (ev):

   -72.4468 -72.4464 -43.9122 -43.9118 -43.9073 -43.9070 -43.9021 -43.9017
   -21.2724 -20.6861 -20.6816 -20.1356 -20.1166 -19.6127 -19.6090 -19.1252
   -18.7226 -18.7174 -18.4882 -18.4714 -18.2205 -18.1111 -18.1041 -17.8753
   -12.5092 -12.2353 -12.2233 -11.8465 -11.8431 -11.6837 -11.2171 -11.2143
   -10.4174 -10.3928 -10.1429 -10.1406  -9.6142  -9.6132  -8.8601  -8.8547
    -8.8451  -8.7912  -8.7876  -8.6216  -8.2224  -8.0674  -8.0517  -7.8560
    -7.8507  -7.4638  -7.4624  -7.3220  -7.2684  -7.2334  -7.2318  -6.9903
    -6.9763  -6.5825  -6.5725  -6.1791  -6.1783  -5.8970  -5.4440  -5.3155
    -5.3024  -5.2256  -4.9537  -4.9109  -4.5306  -4.3818  -4.3674  -4.0040
    -2.2612  -1.6224  -1.4073  -1.3990  -1.3801  -1.3545  -1.3448  -1.3247
    -1.3242  -1.3173  -1.3052  -1.2634   0.6241   0.8005   1.0266   1.1728
     1.2408   1.4432   1.4606   1.5469   1.5729   1.5896

          k = 0.1667-0.4811 0.0000 ( 59291 PWs)   bands (ev):

   -72.4468 -72.4464 -43.9122 -43.9119 -43.9073 -43.9070 -43.9021 -43.9017
   -21.1420 -20.9378 -20.7487 -20.1865 -19.8298 -19.4926 -19.3420 -19.2007
   -19.0400 -18.8053 -18.6660 -18.5700 -18.1747 -18.1151 -17.9482 -17.7495
   -12.3732 -12.1384 -12.0701 -11.9319 -11.7055 -11.6842 -11.5779 -10.9673
   -10.9154 -10.6487 -10.5487  -9.8855  -9.7184  -9.3615  -9.1362  -8.6909
    -8.6481  -8.5786  -8.4143  -8.3920  -8.1869  -8.1511  -8.0881  -8.0755
    -7.7135  -7.6487  -7.5194  -7.4995  -7.3814  -7.1962  -7.0930  -6.8849
    -6.6475  -6.4153  -6.1995  -6.1830  -5.9996  -5.9548  -5.8090  -5.7692
    -5.4768  -5.4268  -5.2314  -5.0668  -4.4684  -4.3738  -4.1159  -3.7914
    -2.2513  -1.6295  -1.4044  -1.3992  -1.3808  -1.3522  -1.3444  -1.3271
    -1.3239  -1.3187  -1.3052  -1.2634   0.6002   0.6570   1.0654   1.1002
     1.1830   1.2184   1.3759   1.7191   1.8073   1.9054

          k = 0.1667-0.0962 0.0000 ( 59226 PWs)   bands (ev):

   -72.4468 -72.4464 -43.9122 -43.9118 -43.9073 -43.9070 -43.9021 -43.9017
   -21.3389 -20.5614 -20.3694 -20.3665 -20.0123 -20.0079 -19.8314 -18.7528
   -18.7501 -18.4042 -18.3881 -18.3831 -18.3002 -18.2822 -18.1016 -18.0985
   -12.5362 -12.5240 -12.4332 -11.6054 -11.6029 -11.4568 -11.4406 -10.9506
   -10.9499  -9.9534  -9.9526  -9.7012  -9.4040  -9.3935  -9.2556  -9.2538
    -9.0671  -9.0654  -8.9479  -8.3483  -8.3477  -7.9279  -7.9225  -7.9066
    -7.8709  -7.7956  -7.6278  -7.6162  -7.1455  -7.1301  -6.9846  -6.9127
    -6.9114  -6.8767  -6.5554  -6.5547  -6.2828  -5.3619  -5.3546  -5.1687
    -5.0907  -4.8417  -4.8097  -4.7813  -4.6580  -4.6145  -4.3709  -4.3644
    -2.2714  -1.6152  -1.4103  -1.3990  -1.3795  -1.3574  -1.3452  -1.3251
    -1.3232  -1.3150  -1.3052  -1.2634   0.6469   0.9366   1.0134   1.1725
     1.2296   1.3313   1.3949   1.5660   1.5966   1.6455

          k =-0.5000-0.8660 0.0000 ( 59292 PWs)   bands (ev):

   -72.4468 -72.4464 -43.9122 -43.9119 -43.9074 -43.9070 -43.9021 -43.9017
   -21.0757 -21.0719 -20.4930 -20.4919 -19.4540 -19.4514 -19.4343 -19.4328
   -19.0177 -19.0147 -18.3550 -18.3511 -18.3390 -18.3338 -17.8174 -17.8163
   -12.0985 -12.0952 -12.0860 -12.0820 -11.9014 -11.9001 -11.3548 -11.3525
   -10.2592 -10.2580 -10.1598 -10.1588 -10.1538 -10.1528  -8.5970  -8.5869
    -8.5743  -8.5716  -8.5688  -8.5656  -7.8876  -7.8875  -7.8854  -7.8846
    -7.8476  -7.8466  -7.7953  -7.7922  -7.5149  -7.5119  -6.6354  -6.6341
    -6.3780  -6.3695  -6.3229  -6.3197  -6.2153  -6.2132  -5.7321  -5.7270
    -5.5705  -5.5676  -4.7547  -4.7500  -4.7210  -4.7106  -3.9042  -3.9015
    -2.0523  -1.9057  -1.3900  -1.3797  -1.3707  -1.3593  -1.3535  -1.3416
    -1.3407  -1.3271  -1.3186  -1.3115   1.0045   1.0216   1.1176   1.1801
     1.3127   1.3621   1.4486   1.5107   1.6323   1.6394

          k =-0.1667 0.2887 0.0000 ( 59267 PWs)   bands (ev):

   -72.4468 -72.4464 -43.9122 -43.9118 -43.9073 -43.9070 -43.9021 -43.9017
   -21.2724 -20.6861 -20.6816 -20.1356 -20.1166 -19.6128 -19.6090 -19.1252
   -18.7226 -18.7173 -18.4882 -18.4714 -18.2205 -18.1111 -18.1041 -17.8753
   -12.5092 -12.2353 -12.2233 -11.8465 -11.8432 -11.6837 -11.2171 -11.2143
   -10.4174 -10.3928 -10.1429 -10.1406  -9.6142  -9.6132  -8.8601  -8.8546
    -8.8451  -8.7913  -8.7876  -8.6216  -8.2225  -8.0674  -8.0517  -7.8560
    -7.8507  -7.4638  -7.4625  -7.3220  -7.2684  -7.2333  -7.2318  -6.9903
    -6.9763  -6.5825  -6.5725  -6.1791  -6.1782  -5.8970  -5.4441  -5.3155
    -5.3024  -5.2255  -4.9537  -4.9109  -4.5306  -4.3818  -4.3674  -4.0040
    -2.2612  -1.6224  -1.4073  -1.3990  -1.3801  -1.3545  -1.3448  -1.3247
    -1.3242  -1.3173  -1.3052  -1.2634   0.6241   0.8005   1.0266   1.1728
     1.2408   1.4432   1.4606   1.5469   1.5729   1.5897

          k = 0.3333 0.0000 0.0000 ( 59267 PWs)   bands (ev):

   -72.4468 -72.4464 -43.9122 -43.9119 -43.9073 -43.9070 -43.9021 -43.9017
   -21.2720 -20.7109 -20.6567 -20.1272 -20.1236 -19.6382 -19.5853 -19.1270
   -18.7391 -18.6963 -18.4822 -18.4796 -18.2157 -18.1333 -18.0882 -17.8746
   -12.5091 -12.2304 -12.2278 -11.8547 -11.8369 -11.6818 -11.2347 -11.1974
   -10.4161 -10.3930 -10.1552 -10.1285  -9.6205  -9.6060  -8.8689  -8.8487
    -8.8403  -8.8124  -8.7673  -8.6223  -8.2240  -8.1265  -7.9920  -7.8529
    -7.8517  -7.4697  -7.4561  -7.3122  -7.2745  -7.2430  -7.2220  -6.9848
    -6.9832  -6.6411  -6.5202  -6.1818  -6.1746  -5.9016  -5.4437  -5.3307
    -5.2795  -5.2259  -4.9410  -4.9268  -4.5209  -4.4070  -4.3522  -4.0038
    -2.1701  -1.7617  -1.4005  -1.3900  -1.3674  -1.3576  -1.3490  -1.3384
    -1.3290  -1.3225  -1.3183  -1.3045   1.0222   1.0271   1.1139   1.1676
     1.2499   1.2853   1.4740   1.4837   1.5358   1.5704

          k =-0.1667-0.4811 0.0000 ( 59291 PWs)   bands (ev):

   -72.4468 -72.4464 -43.9122 -43.9119 -43.9073 -43.9070 -43.9021 -43.9017
   -21.1420 -20.9378 -20.7487 -20.1865 -19.8298 -19.4926 -19.3420 -19.2007
   -19.0400 -18.8053 -18.6660 -18.5700 -18.1747 -18.1151 -17.9482 -17.7495
   -12.3733 -12.1384 -12.0701 -11.9318 -11.7055 -11.6842 -11.5780 -10.9673
   -10.9154 -10.6487 -10.5487  -9.8855  -9.7184  -9.3615  -9.1362  -8.6909
    -8.6480  -8.5786  -8.4143  -8.3920  -8.1868  -8.1511  -8.0882  -8.0755
    -7.7135  -7.6487  -7.5193  -7.4995  -7.3814  -7.1962  -7.0930  -6.8849
    -6.6476  -6.4154  -6.1995  -6.1831  -5.9996  -5.9548  -5.8090  -5.7692
    -5.4769  -5.4268  -5.2314  -5.0668  -4.4684  -4.3738  -4.1159  -3.7914
    -2.2513  -1.6295  -1.4044  -1.3992  -1.3808  -1.3522  -1.3444  -1.3271
    -1.3239  -1.3187  -1.3052  -1.2634   0.6002   0.6570   1.0654   1.1002
     1.1830   1.2184   1.3759   1.7191   1.8061   1.9053

          k = 0.5000-0.0962 0.0000 ( 59291 PWs)   bands (ev):

   -72.4468 -72.4464 -43.9122 -43.9119 -43.9073 -43.9070 -43.9021 -43.9017
   -21.1393 -20.9452 -20.7437 -20.1847 -19.8304 -19.4936 -19.3486 -19.1957
   -19.0408 -18.8052 -18.6569 -18.5763 -18.1624 -18.1316 -17.9450 -17.7494
   -12.3725 -12.1389 -12.0679 -11.9355 -11.7175 -11.6699 -11.5803 -10.9679
   -10.9132 -10.6470 -10.5509  -9.8834  -9.7191  -9.3625  -9.1357  -8.6799
    -8.6486  -8.5765  -8.4249  -8.4180  -8.1847  -8.1292  -8.1009  -8.0639
    -7.7099  -7.6493  -7.5182  -7.5008  -7.3756  -7.1976  -7.0938  -6.8867
    -6.6479  -6.4189  -6.2211  -6.1826  -5.9835  -5.9540  -5.8082  -5.7716
    -5.4780  -5.4227  -5.2112  -5.0832  -4.4447  -4.4030  -4.1106  -3.7921
    -2.0528  -1.9051  -1.3902  -1.3800  -1.3707  -1.3596  -1.3534  -1.3421
    -1.3403  -1.3271  -1.3187  -1.3115   0.9386   1.0152   1.1299   1.1490
     1.2753   1.3256   1.4325   1.5103   1.5488   1.7501

          k =-0.3333-0.3849 0.0000 ( 59291 PWs)   bands (ev):

   -72.4468 -72.4464 -43.9122 -43.9118 -43.9073 -43.9070 -43.9021 -43.9017
   -21.1402 -20.9426 -20.7455 -20.1847 -19.8318 -19.4922 -19.3438 -19.1986
   -19.0438 -18.8037 -18.6583 -18.5753 -18.1649 -18.1287 -17.9451 -17.7495
   -12.3728 -12.1372 -12.0703 -11.9345 -11.7066 -11.6820 -11.5791 -10.9675
   -10.9131 -10.6464 -10.5518  -9.8841  -9.7192  -9.3621  -9.1362  -8.6834
    -8.6473  -8.5787  -8.4164  -8.4123  -8.1864  -8.1367  -8.0881  -8.0777
    -7.7104  -7.6474  -7.5252  -7.4946  -7.3754  -7.1978  -7.0942  -6.8916
    -6.6458  -6.4142  -6.2054  -6.1849  -5.9936  -5.9531  -5.8084  -5.7813
    -5.4778  -5.4184  -5.2111  -5.0829  -4.4475  -4.4009  -4.1101  -3.7921
    -2.1542  -1.7754  -1.3969  -1.3897  -1.3681  -1.3578  -1.3461  -1.3438
    -1.3290  -1.3215  -1.3180  -1.3048   0.8216   0.9303   1.1288   1.1428
     1.1658   1.2988   1.3477   1.4559   1.6938   1.8434

          k = 0.5000 0.0962 0.0000 ( 59291 PWs)   bands (ev):

   -72.4468 -72.4464 -43.9122 -43.9119 -43.9073 -43.9070 -43.9021 -43.9017
   -21.1393 -20.9452 -20.7437 -20.1847 -19.8304 -19.4936 -19.3486 -19.1957
   -19.0408 -18.8052 -18.6569 -18.5764 -18.1624 -18.1316 -17.9449 -17.7494
   -12.3725 -12.1389 -12.0679 -11.9355 -11.7175 -11.6699 -11.5803 -10.9679
   -10.9132 -10.6471 -10.5509  -9.8834  -9.7192  -9.3625  -9.1356  -8.6799
    -8.6486  -8.5766  -8.4249  -8.4180  -8.1847  -8.1292  -8.1009  -8.0639
    -7.7100  -7.6492  -7.5183  -7.5009  -7.3756  -7.1977  -7.0937  -6.8867
    -6.6478  -6.4189  -6.2211  -6.1825  -5.9835  -5.9540  -5.8083  -5.7716
    -5.4780  -5.4227  -5.2112  -5.0832  -4.4447  -4.4029  -4.1107  -3.7921
    -2.0528  -1.9051  -1.3902  -1.3800  -1.3707  -1.3596  -1.3534  -1.3420
    -1.3403  -1.3271  -1.3187  -1.3115   0.9386   1.0152   1.1299   1.1490
     1.2753   1.3255   1.4325   1.5103   1.5488   1.7502

          k =-0.3333 0.3849 0.0000 ( 59291 PWs)   bands (ev):

   -72.4468 -72.4464 -43.9122 -43.9118 -43.9073 -43.9070 -43.9021 -43.9017
   -21.1402 -20.9426 -20.7455 -20.1847 -19.8318 -19.4922 -19.3438 -19.1986
   -19.0438 -18.8037 -18.6583 -18.5753 -18.1649 -18.1287 -17.9451 -17.7495
   -12.3728 -12.1372 -12.0703 -11.9345 -11.7066 -11.6820 -11.5791 -10.9676
   -10.9130 -10.6464 -10.5518  -9.8841  -9.7192  -9.3621  -9.1362  -8.6834
    -8.6474  -8.5787  -8.4165  -8.4123  -8.1865  -8.1367  -8.0880  -8.0777
    -7.7104  -7.6474  -7.5253  -7.4946  -7.3754  -7.1977  -7.0943  -6.8916
    -6.6459  -6.4142  -6.2054  -6.1849  -5.9936  -5.9532  -5.8084  -5.7813
    -5.4777  -5.4184  -5.2112  -5.0829  -4.4475  -4.4009  -4.1101  -3.7921
    -2.1542  -1.7754  -1.3969  -1.3897  -1.3681  -1.3578  -1.3461  -1.3438
    -1.3290  -1.3215  -1.3180  -1.3048   0.8216   0.9303   1.1288   1.1428
     1.1658   1.2988   1.3477   1.4559   1.6938   1.8423

          k =-0.1667-0.0962 0.0000 ( 59226 PWs)   bands (ev):

   -72.4468 -72.4464 -43.9122 -43.9118 -43.9073 -43.9070 -43.9021 -43.9017
   -21.3389 -20.5614 -20.3694 -20.3665 -20.0123 -20.0079 -19.8314 -18.7528
   -18.7501 -18.4042 -18.3881 -18.3831 -18.3002 -18.2822 -18.1016 -18.0985
   -12.5362 -12.5240 -12.4332 -11.6054 -11.6029 -11.4568 -11.4406 -10.9506
   -10.9499  -9.9534  -9.9527  -9.7011  -9.4040  -9.3935  -9.2556  -9.2539
    -9.0671  -9.0654  -8.9479  -8.3483  -8.3477  -7.9279  -7.9225  -7.9066
    -7.8708  -7.7956  -7.6278  -7.6162  -7.1455  -7.1301  -6.9847  -6.9127
    -6.9113  -6.8767  -6.5554  -6.5546  -6.2829  -5.3619  -5.3546  -5.1686
    -5.0908  -4.8417  -4.8097  -4.7813  -4.6580  -4.6145  -4.3710  -4.3644
    -2.2714  -1.6152  -1.4103  -1.3990  -1.3795  -1.3574  -1.3452  -1.3251
    -1.3232  -1.3150  -1.3052  -1.2634   0.6469   0.9366   1.0134   1.1724
     1.2296   1.3314   1.3949   1.5660   1.5966   1.6455

          k =-0.0000-0.1925 0.0000 ( 59226 PWs)   bands (ev):

   -72.4468 -72.4464 -43.9121 -43.9118 -43.9073 -43.9070 -43.9021 -43.9017
   -21.3390 -20.5562 -20.3848 -20.3598 -20.0164 -19.9963 -19.8353 -18.7603
   -18.7388 -18.4126 -18.4084 -18.3748 -18.2808 -18.2795 -18.1125 -18.0931
   -12.5317 -12.5290 -12.4327 -11.6135 -11.5962 -11.4487 -11.4459 -10.9545
   -10.9477  -9.9569  -9.9490  -9.7018  -9.3995  -9.3967  -9.2560  -9.2533
    -9.0670  -9.0665  -8.9485  -8.3502  -8.3446  -7.9263  -7.9251  -7.8849
    -7.8681  -7.7971  -7.6829  -7.5964  -7.1528  -7.0948  -6.9831  -6.9172
    -6.9085  -6.8917  -6.5594  -6.5498  -6.2835  -5.3832  -5.3232  -5.1690
    -5.0905  -4.8547  -4.8463  -4.7706  -4.6179  -4.6149  -4.3986  -4.3475
    -2.3031  -1.5675  -1.4127  -1.4024  -1.3842  -1.3581  -1.3415  -1.3261
    -1.3213  -1.3120  -1.2998  -1.2199   0.4751   0.8593   0.9599   1.1385
     1.2320   1.3499   1.4572   1.5981   1.6563   1.6573

          k = 0.5000-0.8660 0.0000 ( 59292 PWs)   bands (ev):

   -72.4468 -72.4464 -43.9122 -43.9119 -43.9074 -43.9070 -43.9021 -43.9017
   -21.0757 -21.0718 -20.4930 -20.4919 -19.4540 -19.4514 -19.4343 -19.4328
   -19.0177 -19.0147 -18.3550 -18.3511 -18.3391 -18.3337 -17.8174 -17.8163
   -12.0985 -12.0952 -12.0861 -12.0819 -11.9014 -11.9000 -11.3548 -11.3524
   -10.2592 -10.2581 -10.1598 -10.1588 -10.1538 -10.1528  -8.5970  -8.5869
    -8.5743  -8.5716  -8.5689  -8.5654  -7.8876  -7.8875  -7.8854  -7.8845
    -7.8476  -7.8467  -7.7953  -7.7922  -7.5150  -7.5119  -6.6353  -6.6340
    -6.3780  -6.3695  -6.3230  -6.3197  -6.2152  -6.2131  -5.7322  -5.7270
    -5.5706  -5.5677  -4.7547  -4.7500  -4.7210  -4.7106  -3.9042  -3.9015
    -2.0523  -1.9057  -1.3900  -1.3797  -1.3707  -1.3593  -1.3535  -1.3415
    -1.3409  -1.3271  -1.3186  -1.3115   1.0045   1.0216   1.1176   1.1801
     1.3126   1.3621   1.4486   1.5106   1.6324   1.6392

          k =-1.0000 0.0000 0.0000 ( 59292 PWs)   bands (ev):

   -72.4468 -72.4464 -43.9122 -43.9119 -43.9073 -43.9070 -43.9021 -43.9017
   -21.0995 -21.0452 -20.5066 -20.4828 -19.4587 -19.4456 -19.4398 -19.4220
   -19.0387 -18.9964 -18.3820 -18.3773 -18.3100 -18.3097 -17.8275 -17.8081
   -12.1207 -12.1128 -12.0639 -12.0602 -11.9119 -11.8907 -11.3749 -11.3343
   -10.2743 -10.2568 -10.1626 -10.1572 -10.1473 -10.1453  -8.6535  -8.5926
    -8.5913  -8.5475  -8.5458  -8.5176  -7.9015  -7.9014  -7.8828  -7.8782
    -7.8543  -7.8384  -7.8260  -7.7633  -7.5381  -7.4910  -6.6400  -6.6271
    -6.3955  -6.3516  -6.3270  -6.2944  -6.2335  -6.1982  -5.7606  -5.7098
    -5.5910  -5.5475  -4.8119  -4.7789  -4.6793  -4.6672  -3.9279  -3.8805
    -2.2853  -1.5785  -1.4068  -1.4027  -1.3856  -1.3524  -1.3404  -1.3253
    -1.3238  -1.3157  -1.2997  -1.2208   0.4384   0.5984   1.0637   1.1115
     1.1437   1.4271   1.5742   1.5956   1.6152   1.8228

 ------ SPIN DOWN ----------


          k = 0.1667 0.2887 0.0000 ( 59267 PWs)   bands (ev):

   -68.0739 -68.0735 -39.5761 -39.5757 -39.5678 -39.5673 -39.5647 -39.5643
   -21.2652 -20.6787 -20.6751 -20.1274 -20.1107 -19.6055 -19.6024 -19.1180
   -18.7140 -18.7101 -18.4801 -18.4653 -18.2119 -18.1037 -18.0987 -17.8680
   -12.5045 -12.2294 -12.2194 -11.8418 -11.8390 -11.6795 -11.2120 -11.2097
   -10.4121 -10.3880 -10.1376 -10.1356  -9.6094  -9.6086  -8.8492  -8.8399
    -8.8335  -8.7864  -8.7833  -8.6172  -8.2181  -8.0400  -8.0306  -7.8513
    -7.8465  -7.4580  -7.4570  -7.2901  -7.2543  -7.2288  -7.2275  -6.9850
    -6.9727  -6.5596  -6.5529  -6.1742  -6.1736  -5.8745  -5.4387  -5.2888
    -5.2815  -5.2207  -4.9280  -4.8965  -4.5069  -4.3607  -4.3527  -3.9848
    -0.2241   0.6553   1.0605   1.1928   1.3580   1.4156   1.4389   1.5021
     1.5524   1.8199   1.8878   2.1164   2.2131   2.2652   2.2927   2.4191
     2.4415   2.5334   2.5420   2.5907   2.6050   2.6613

          k = 0.1667-0.4811 0.0000 ( 59291 PWs)   bands (ev):

   -68.0739 -68.0735 -39.5761 -39.5757 -39.5678 -39.5673 -39.5647 -39.5643
   -21.1342 -20.9318 -20.7414 -20.1792 -19.8230 -19.4854 -19.3352 -19.1932
   -19.0329 -18.7982 -18.6566 -18.5644 -18.1642 -18.1113 -17.9407 -17.7421
   -12.3685 -12.1336 -12.0656 -11.9274 -11.7016 -11.6792 -11.5734 -10.9623
   -10.9101 -10.6433 -10.5442  -9.8799  -9.7138  -9.3563  -9.1315  -8.6601
    -8.6432  -8.5731  -8.4101  -8.3755  -8.1823  -8.1246  -8.0836  -8.0712
    -7.7085  -7.6441  -7.5146  -7.4955  -7.3562  -7.1910  -7.0886  -6.8631
    -6.6419  -6.3931  -6.1802  -6.1772  -5.9765  -5.9491  -5.8041  -5.7487
    -5.4722  -5.4038  -5.2015  -5.0532  -4.4392  -4.3643  -4.0954  -3.7728
    -0.1818   0.6237   1.0114   1.1145   1.1378   1.2733   1.3554   1.7647
     1.8520   1.8697   2.0417   2.1041   2.2529   2.2956   2.3009   2.3683
     2.4664   2.4765   2.5213   2.5250   2.5682   2.6638

          k = 0.1667-0.0962 0.0000 ( 59226 PWs)   bands (ev):

   -68.0739 -68.0735 -39.5761 -39.5757 -39.5678 -39.5673 -39.5647 -39.5643
   -21.3318 -20.5534 -20.3626 -20.3605 -20.0043 -20.0010 -19.8255 -18.7445
   -18.7425 -18.3958 -18.3818 -18.3754 -18.2914 -18.2759 -18.0949 -18.0926
   -12.5304 -12.5203 -12.4286 -11.6008 -11.5987 -11.4510 -11.4369 -10.9457
   -10.9452  -9.9486  -9.9479  -9.6959  -9.3989  -9.3890  -9.2501  -9.2487
    -9.0625  -9.0611  -8.9224  -8.3427  -8.3422  -7.9232  -7.9183  -7.8771
    -7.8628  -7.7913  -7.6055  -7.5989  -7.1175  -7.1082  -6.9798  -6.9082
    -6.9071  -6.8611  -6.5508  -6.5501  -6.2782  -5.3360  -5.3317  -5.1636
    -5.0857  -4.8175  -4.7910  -4.7597  -4.6324  -4.5998  -4.3515  -4.3477
    -0.2627   0.6892   1.0851   1.1151   1.2303   1.4658   1.4896   1.5523
     1.7988   1.9067   1.9987   2.0397   2.0754   2.1425   2.2929   2.4048
     2.4458   2.4952   2.5378   2.5691   2.6249   2.6616

          k =-0.5000-0.8660 0.0000 ( 59292 PWs)   bands (ev):

   -68.0739 -68.0735 -39.5761 -39.5757 -39.5678 -39.5673 -39.5647 -39.5643
   -21.0681 -21.0649 -20.4863 -20.4853 -19.4451 -19.4430 -19.4282 -19.4266
   -19.0106 -19.0082 -18.3463 -18.3429 -18.3322 -18.3280 -17.8102 -17.8091
   -12.0925 -12.0896 -12.0820 -12.0784 -11.8972 -11.8960 -11.3498 -11.3478
   -10.2542 -10.2532 -10.1540 -10.1531 -10.1492 -10.1484  -8.5697  -8.5694
    -8.5665  -8.5643  -8.5619  -8.5606  -7.8829  -7.8828  -7.8809  -7.8802
    -7.8419  -7.8411  -7.7739  -7.7715  -7.5105  -7.5078  -6.6304  -6.6293
    -6.3439  -6.3385  -6.3073  -6.3048  -6.2100  -6.2082  -5.7115  -5.7078
    -5.5655  -5.5630  -4.7296  -4.7258  -4.7027  -4.6953  -3.8849  -3.8828
     0.0405   0.1647   1.0357   1.0486   1.4609   1.4757   1.4985   1.5158
     1.7667   1.7721   2.0660   2.0778   2.2109   2.2417   2.4060   2.4135
     2.4643   2.4706   2.5259   2.5389   2.6070   2.6417

          k =-0.1667 0.2887 0.0000 ( 59267 PWs)   bands (ev):

   -68.0739 -68.0735 -39.5761 -39.5757 -39.5678 -39.5673 -39.5647 -39.5643
   -21.2652 -20.6787 -20.6751 -20.1274 -20.1107 -19.6055 -19.6024 -19.1180
   -18.7141 -18.7101 -18.4801 -18.4653 -18.2119 -18.1037 -18.0987 -17.8680
   -12.5045 -12.2294 -12.2194 -11.8418 -11.8391 -11.6796 -11.2121 -11.2096
   -10.4121 -10.3880 -10.1376 -10.1357  -9.6094  -9.6086  -8.8492  -8.8398
    -8.8335  -8.7865  -8.7833  -8.6171  -8.2182  -8.0400  -8.0306  -7.8513
    -7.8464  -7.4580  -7.4570  -7.2901  -7.2543  -7.2288  -7.2274  -6.9851
    -6.9727  -6.5596  -6.5529  -6.1743  -6.1736  -5.8745  -5.4388  -5.2888
    -5.2815  -5.2206  -4.9280  -4.8965  -4.5069  -4.3607  -4.3527  -3.9848
    -0.2241   0.6553   1.0605   1.1928   1.3579   1.4156   1.4389   1.5021
     1.5524   1.8199   1.8878   2.1164   2.2132   2.2651   2.2926   2.4192
     2.4415   2.5335   2.5419   2.5907   2.6047   2.6626

          k = 0.3333 0.0000 0.0000 ( 59267 PWs)   bands (ev):

   -68.0739 -68.0735 -39.5761 -39.5757 -39.5678 -39.5673 -39.5647 -39.5643
   -21.2649 -20.7002 -20.6535 -20.1206 -20.1165 -19.6272 -19.5820 -19.1193
   -18.7279 -18.6931 -18.4743 -18.4725 -18.2085 -18.1218 -18.0850 -17.8676
   -12.5044 -12.2254 -12.2231 -11.8495 -11.8330 -11.6780 -11.2281 -11.1941
   -10.4111 -10.3881 -10.1482 -10.1253  -9.6149  -9.6023  -8.8513  -8.8431
    -8.8269  -8.8055  -8.7651  -8.6177  -8.2194  -8.0846  -7.9858  -7.8487
    -7.8474  -7.4629  -7.4519  -7.2830  -7.2590  -7.2373  -7.2188  -6.9801
    -6.9787  -6.6026  -6.5135  -6.1767  -6.1705  -5.8770  -5.4385  -5.3030
    -5.2632  -5.2210  -4.9184  -4.9078  -4.5018  -4.3800  -4.3389  -3.9846
    -0.1470   0.4164   1.0753   1.1749   1.3556   1.4697   1.4813   1.5064
     1.5867   1.8408   2.0725   2.1120   2.2479   2.2875   2.3124   2.4245
     2.4508   2.4822   2.5489   2.5640   2.6045   2.6358

          k =-0.1667-0.4811 0.0000 ( 59291 PWs)   bands (ev):

   -68.0739 -68.0735 -39.5761 -39.5757 -39.5678 -39.5673 -39.5647 -39.5643
   -21.1342 -20.9318 -20.7414 -20.1792 -19.8230 -19.4854 -19.3352 -19.1932
   -19.0329 -18.7982 -18.6566 -18.5644 -18.1642 -18.1113 -17.9407 -17.7421
   -12.3685 -12.1336 -12.0656 -11.9274 -11.7016 -11.6792 -11.5734 -10.9623
   -10.9101 -10.6433 -10.5442  -9.8799  -9.7138  -9.3563  -9.1315  -8.6601
    -8.6432  -8.5731  -8.4100  -8.3755  -8.1822  -8.1246  -8.0836  -8.0713
    -7.7085  -7.6442  -7.5146  -7.4955  -7.3562  -7.1910  -7.0886  -6.8631
    -6.6419  -6.3932  -6.1802  -6.1772  -5.9765  -5.9490  -5.8041  -5.7486
    -5.4723  -5.4038  -5.2015  -5.0532  -4.4392  -4.3643  -4.0953  -3.7728
    -0.1818   0.6237   1.0114   1.1144   1.1378   1.2734   1.3553   1.7648
     1.8520   1.8697   2.0417   2.1041   2.2529   2.2957   2.3008   2.3683
     2.4663   2.4764   2.5213   2.5250   2.5681   2.6620

          k = 0.5000-0.0962 0.0000 ( 59291 PWs)   bands (ev):

   -68.0739 -68.0735 -39.5761 -39.5757 -39.5678 -39.5673 -39.5647 -39.5643
   -21.1322 -20.9373 -20.7378 -20.1779 -19.8234 -19.4861 -19.3400 -19.1897
   -19.0334 -18.7981 -18.6500 -18.5690 -18.1551 -18.1233 -17.9385 -17.7421
   -12.3678 -12.1340 -12.0638 -11.9305 -11.7118 -11.6670 -11.5753 -10.9628
   -10.9083 -10.6420 -10.5460  -9.8783  -9.7144  -9.3571  -9.1311  -8.6540
    -8.6437  -8.5715  -8.4131  -8.3937  -8.1806  -8.1126  -8.0944  -8.0613
    -7.7056  -7.6446  -7.5137  -7.4966  -7.3529  -7.1921  -7.0891  -6.8640
    -6.6421  -6.3952  -6.1907  -6.1780  -5.9675  -5.9487  -5.8035  -5.7499
    -5.4731  -5.4018  -5.1900  -5.0625  -4.4249  -4.3817  -4.0925  -3.7730
     0.0312   0.1779   1.0102   1.1108   1.1466   1.2909   1.6358   1.7467
     1.7900   2.0093   2.0387   2.1755   2.2272   2.2960   2.3174   2.3956
     2.4495   2.5095   2.5314   2.5575   2.6080   2.6359

          k =-0.3333-0.3849 0.0000 ( 59291 PWs)   bands (ev):

   -68.0739 -68.0735 -39.5761 -39.5757 -39.5678 -39.5673 -39.5647 -39.5643
   -21.1329 -20.9354 -20.7391 -20.1779 -19.8244 -19.4852 -19.3365 -19.1917
   -19.0357 -18.7970 -18.6510 -18.5683 -18.1568 -18.1214 -17.9385 -17.7422
   -12.3681 -12.1326 -12.0657 -11.9297 -11.7025 -11.6774 -11.5743 -10.9625
   -10.9082 -10.6415 -10.5467  -9.8788  -9.7145  -9.3568  -9.1315  -8.6558
    -8.6426  -8.5731  -8.4111  -8.3872  -8.1820  -8.1169  -8.0835  -8.0730
    -7.7060  -7.6431  -7.5194  -7.4915  -7.3528  -7.1922  -7.0895  -6.8668
    -6.6406  -6.3926  -6.1822  -6.1795  -5.9731  -5.9480  -5.8037  -5.7552
    -5.4730  -5.3995  -5.1901  -5.0622  -4.4262  -4.3806  -4.0922  -3.7731
    -0.0819   0.3530   1.0124   1.0788   1.1867   1.2794   1.5104   1.7601
     1.9355   1.9579   2.0478   2.0605   2.2144   2.2998   2.3059   2.4279
     2.4470   2.4742   2.5241   2.5631   2.5934   2.6452

          k = 0.5000 0.0962 0.0000 ( 59291 PWs)   bands (ev):

   -68.0739 -68.0735 -39.5761 -39.5757 -39.5678 -39.5673 -39.5647 -39.5643
   -21.1322 -20.9373 -20.7378 -20.1779 -19.8234 -19.4862 -19.3400 -19.1897
   -19.0334 -18.7981 -18.6500 -18.5690 -18.1551 -18.1233 -17.9384 -17.7421
   -12.3678 -12.1340 -12.0638 -11.9305 -11.7118 -11.6670 -11.5753 -10.9628
   -10.9083 -10.6420 -10.5460  -9.8783  -9.7145  -9.3571  -9.1310  -8.6540
    -8.6437  -8.5716  -8.4131  -8.3937  -8.1806  -8.1126  -8.0944  -8.0613
    -7.7057  -7.6446  -7.5137  -7.4966  -7.3529  -7.1922  -7.0891  -6.8640
    -6.6421  -6.3952  -6.1907  -6.1779  -5.9675  -5.9486  -5.8036  -5.7499
    -5.4732  -5.4019  -5.1900  -5.0625  -4.4249  -4.3817  -4.0925  -3.7730
     0.0312   0.1779   1.0102   1.1108   1.1466   1.2908   1.6358   1.7466
     1.7901   2.0093   2.0388   2.1756   2.2272   2.2959   2.3174   2.3956
     2.4495   2.5094   2.5316   2.5574   2.6081   2.6347

          k =-0.3333 0.3849 0.0000 ( 59291 PWs)   bands (ev):

   -68.0739 -68.0735 -39.5761 -39.5757 -39.5678 -39.5673 -39.5647 -39.5643
   -21.1329 -20.9354 -20.7391 -20.1778 -19.8244 -19.4852 -19.3365 -19.1917
   -19.0357 -18.7970 -18.6510 -18.5682 -18.1567 -18.1214 -17.9385 -17.7422
   -12.3681 -12.1326 -12.0658 -11.9297 -11.7026 -11.6774 -11.5743 -10.9625
   -10.9082 -10.6415 -10.5467  -9.8788  -9.7145  -9.3568  -9.1315  -8.6558
    -8.6427  -8.5730  -8.4112  -8.3872  -8.1820  -8.1169  -8.0835  -8.0730
    -7.7060  -7.6431  -7.5195  -7.4914  -7.3528  -7.1922  -7.0896  -6.8668
    -6.6406  -6.3926  -6.1822  -6.1795  -5.9731  -5.9480  -5.8036  -5.7552
    -5.4729  -5.3995  -5.1901  -5.0622  -4.4263  -4.3806  -4.0922  -3.7731
    -0.0819   0.3530   1.0124   1.0788   1.1867   1.2794   1.5104   1.7601
     1.9355   1.9580   2.0477   2.0606   2.2144   2.2998   2.3059   2.4278
     2.4471   2.4742   2.5242   2.5630   2.5934   2.6457

          k =-0.1667-0.0962 0.0000 ( 59226 PWs)   bands (ev):

   -68.0739 -68.0735 -39.5761 -39.5757 -39.5678 -39.5673 -39.5647 -39.5643
   -21.3318 -20.5533 -20.3626 -20.3605 -20.0043 -20.0010 -19.8255 -18.7445
   -18.7425 -18.3958 -18.3818 -18.3753 -18.2914 -18.2759 -18.0949 -18.0926
   -12.5304 -12.5203 -12.4286 -11.6008 -11.5987 -11.4510 -11.4369 -10.9457
   -10.9452  -9.9486  -9.9479  -9.6958  -9.3989  -9.3890  -9.2501  -9.2487
    -9.0625  -9.0611  -8.9224  -8.3428  -8.3422  -7.9232  -7.9183  -7.8771
    -7.8628  -7.7914  -7.6055  -7.5989  -7.1175  -7.1082  -6.9799  -6.9082
    -6.9071  -6.8611  -6.5507  -6.5500  -6.2783  -5.3360  -5.3318  -5.1635
    -5.0858  -4.8175  -4.7910  -4.7597  -4.6324  -4.5998  -4.3515  -4.3477
    -0.2627   0.6892   1.0850   1.1151   1.2304   1.4658   1.4896   1.5523
     1.7987   1.9066   1.9988   2.0397   2.0754   2.1425   2.2930   2.4047
     2.4457   2.4952   2.5378   2.5690   2.6249   2.6615

          k =-0.0000-0.1925 0.0000 ( 59226 PWs)   bands (ev):

   -68.0739 -68.0735 -39.5761 -39.5757 -39.5678 -39.5673 -39.5647 -39.5643
   -21.3319 -20.5495 -20.3757 -20.3538 -20.0089 -19.9909 -19.8283 -18.7515
   -18.7329 -18.4009 -18.3977 -18.3689 -18.2766 -18.2749 -18.1041 -18.0872
   -12.5265 -12.5246 -12.4281 -11.6081 -11.5926 -11.4440 -11.4416 -10.9491
   -10.9432  -9.9514  -9.9449  -9.6964  -9.3950  -9.3919  -9.2507  -9.2480
    -9.0626  -9.0617  -8.9228  -8.3447  -8.3394  -7.9213  -7.9208  -7.8696
    -7.8566  -7.7925  -7.6405  -7.5834  -7.1263  -7.0837  -6.9786  -6.9122
    -6.9044  -6.8694  -6.5543  -6.5459  -6.2787  -5.3524  -5.3101  -5.1638
    -5.0855  -4.8222  -4.8140  -4.7537  -4.6071  -4.6026  -4.3707  -4.3344
    -0.2880   0.8330   1.0878   1.1026   1.2463   1.4351   1.4788   1.5046
     1.7946   1.8575   1.9041   1.9461   2.0285   2.2385   2.3521   2.3707
     2.3934   2.5220   2.5330   2.6031   2.6652   2.7002

          k = 0.5000-0.8660 0.0000 ( 59292 PWs)   bands (ev):

   -68.0739 -68.0735 -39.5761 -39.5757 -39.5678 -39.5673 -39.5647 -39.5643
   -21.0682 -21.0649 -20.4863 -20.4853 -19.4451 -19.4430 -19.4282 -19.4266
   -19.0106 -19.0081 -18.3463 -18.3429 -18.3322 -18.3280 -17.8102 -17.8091
   -12.0925 -12.0896 -12.0821 -12.0783 -11.8972 -11.8960 -11.3499 -11.3477
   -10.2542 -10.2532 -10.1540 -10.1531 -10.1492 -10.1484  -8.5697  -8.5694
    -8.5665  -8.5644  -8.5618  -8.5605  -7.8829  -7.8828  -7.8809  -7.8802
    -7.8420  -7.8412  -7.7739  -7.7715  -7.5105  -7.5079  -6.6303  -6.6292
    -6.3439  -6.3385  -6.3073  -6.3048  -6.2100  -6.2081  -5.7115  -5.7079
    -5.5656  -5.5631  -4.7296  -4.7258  -4.7026  -4.6953  -3.8849  -3.8828
     0.0405   0.1647   1.0357   1.0486   1.4609   1.4756   1.4984   1.5158
     1.7668   1.7721   2.0660   2.0777   2.2110   2.2417   2.4060   2.4136
     2.4642   2.4706   2.5261   2.5389   2.6081   2.6420

          k =-1.0000 0.0000 0.0000 ( 59292 PWs)   bands (ev):

   -68.0739 -68.0735 -39.5762 -39.5757 -39.5678 -39.5673 -39.5647 -39.5643
   -21.0889 -21.0421 -20.4980 -20.4770 -19.4495 -19.4384 -19.4328 -19.4176
   -19.0276 -18.9931 -18.3683 -18.3644 -18.3085 -18.3082 -17.8186 -17.8019
   -12.1130 -12.1060 -12.0620 -12.0581 -11.9068 -11.8875 -11.3681 -11.3312
   -10.2667 -10.2521 -10.1566 -10.1528 -10.1432 -10.1416  -8.6123  -8.5859
    -8.5838  -8.5453  -8.5440  -8.5116  -7.8951  -7.8941  -7.8787  -7.8740
    -7.8357  -7.8352  -7.8020  -7.7510  -7.5311  -7.4890  -6.6345  -6.6234
    -6.3568  -6.3291  -6.3112  -6.2856  -6.2260  -6.1945  -5.7327  -5.6925
    -5.5833  -5.5454  -4.7708  -4.7446  -4.6733  -4.6650  -3.9017  -3.8676
    -0.2152   0.7836   1.0435   1.0536   1.2693   1.3544   1.4391   1.5802
     1.6162   1.6872   1.8824   2.1499   2.2050   2.3142   2.3191   2.4056
     2.4170   2.5141   2.5667   2.5783   2.6274   2.6645

     the Fermi energy is    -0.8223 ev

!    total energy              =   -1133.81165145 Ry

     total all-electron energy =     -6753.487354 Ry
     estimated scf accuracy    <       0.00000002 Ry
     smearing contrib. (-TS)   =      -0.00000000 Ry
     internal energy E=F+TS    =   -1133.81165145 Ry

     The total energy is F=E-TS. E is the sum of the following terms:
     one-electron contribution =   -3914.16304647 Ry
     hartree contribution      =    1985.68988806 Ry
     xc contribution           =    -186.20317490 Ry
     ewald contribution        =    1340.23175729 Ry
     DFT-D3 Dispersion         =      -0.13938100 Ry
     one-center paw contrib.   =    -359.22769442 Ry

     total magnetization       =    12.00 Bohr mag/cell
     absolute magnetization    =    12.00 Bohr mag/cell

     convergence has been achieved in  12 iterations

     Writing output data file ./mytmp/Crdimer0.26-0.2.save/
 
     init_run     :     18.55s CPU     19.85s WALL (       1 calls)
     electrons    :    443.33s CPU    478.63s WALL (       1 calls)

     Called by init_run:
     wfcinit      :     13.82s CPU     14.64s WALL (       1 calls)
     potinit      :      1.46s CPU      1.61s WALL (       1 calls)
     hinit0       :      1.54s CPU      1.61s WALL (       1 calls)

     Called by electrons:
     c_bands      :    355.01s CPU    376.84s WALL (      12 calls)
     sum_band     :     65.85s CPU     73.68s WALL (      12 calls)
     v_of_rho     :      3.96s CPU      4.26s WALL (      13 calls)
     newd         :     12.08s CPU     17.04s WALL (      13 calls)
     PAW_pot      :      5.90s CPU      6.48s WALL (      13 calls)
     mix_rho      :      0.83s CPU      0.85s WALL (      12 calls)

     Called by c_bands:
     init_us_2    :      4.36s CPU      4.41s WALL (     750 calls)
     cegterg      :    344.44s CPU    366.20s WALL (     360 calls)

     Called by *egterg:
     cdiaghg      :     23.71s CPU     37.18s WALL (    2524 calls)
     h_psi        :    221.91s CPU    229.45s WALL (    2554 calls)
     s_psi        :     24.83s CPU     24.89s WALL (    2554 calls)
     g_psi        :      0.67s CPU      0.69s WALL (    2164 calls)

     Called by h_psi:
     h_psi:calbec :     25.56s CPU     26.13s WALL (    2554 calls)
     vloc_psi     :    168.87s CPU    175.73s WALL (    2554 calls)
     add_vuspsi   :     25.50s CPU     25.60s WALL (    2554 calls)

     General routines
     calbec       :     33.60s CPU     34.32s WALL (    2914 calls)
     fft          :      5.96s CPU      8.96s WALL (     319 calls)
     ffts         :      0.10s CPU      0.10s WALL (      50 calls)
     fftw         :    172.36s CPU    179.33s WALL (  226402 calls)
     interpolate  :      0.35s CPU      0.38s WALL (      26 calls)
 
     Parallel routines
     fft_scatt_xy :     28.04s CPU     29.02s WALL (  226771 calls)
     fft_scatt_yz :     69.51s CPU     75.55s WALL (  226771 calls)
 
     PWSCF        :   7m43.96s CPU   8m22.98s WALL

 
   This run was terminated on:  22:59:43  29Mar2021            

=------------------------------------------------------------------------------=
   JOB DONE.
=------------------------------------------------------------------------------=
