
     Program PWSCF v.6.7MaX starts on 29Mar2021 at 23: 8:27 

     This program is part of the open-source Quantum ESPRESSO suite
     for quantum simulation of materials; please cite
         "P. Giannozzi et al., J. Phys.:Condens. Matter 21 395502 (2009);
         "P. Giannozzi et al., J. Phys.:Condens. Matter 29 465901 (2017);
          URL http://www.quantum-espresso.org", 
     in publications or presentations arising from this work. More details at
     http://www.quantum-espresso.org/quote

     Parallel version (MPI), running on    48 processors

     MPI processes distributed on     1 nodes
     R & G space division:  proc/nbgrp/npool/nimage =      48
     Reading input from Crdimer0.26-0.4.scf.in

     Current dimensions of program PWSCF are:
     Max number of different atomic species (ntypx) = 10
     Max number of k-points (npk) =  40000
     Max angular momentum in pseudopotentials (lmaxx) =  3
     file N.pbe-n-kjpaw_psl.1.0.0.UPF: wavefunction(s)  2S renormalized
     file Cr.pbe-spn-kjpaw_psl.1.0.0.UPF: wavefunction(s)  3S 3P 3D renormalized
     file Cr.pbe-spn-kjpaw_psl.1.0.0.UPF: wavefunction(s)  3S 3P 3D renormalized

     --------------------------------------------
     Parameters for DFT-D3 Dispersion Correction:
     --------------------------------------------
       Reference C6 values for interpolation: 

         atom   Coordination number   C6
         B          0.000           214.36
         B          0.971           150.74
         B          1.944           106.23
         B          2.913            62.89
         B          4.586            56.06
         N          0.000            50.54
         N          0.994            44.25
         N          2.014            39.35
         N          2.990            31.16
         Cr1        0.000          1381.48
         Cr1        1.827           571.38
         Cr1       10.619           306.69
         Cr2        0.000          1381.48
         Cr2        1.827           571.38
         Cr2       10.619           306.69

       Values used:

         atom   Coordination number  R0_AB[au]  C6      C8
         B          3.345            3.039     62.89   2505.77
         B          3.336            3.039     62.89   2505.99
         B          3.335            3.039     62.89   2506.00
         B          3.335            3.039     62.89   2506.00
         B          3.343            3.039     62.89   2505.82
         B          3.336            3.039     62.89   2505.99
         N          3.138            2.478     31.22    688.66
         N          3.138            2.478     31.22    688.66
         N          3.135            2.478     31.22    688.69
         N          3.135            2.478     31.22    688.69
         N          3.137            2.478     31.22    688.67
         N          3.139            2.478     31.22    688.66
         N          3.160            2.478     31.21    688.47
         N          3.134            2.478     31.22    688.70
         N          3.134            2.478     31.22    688.70
         B          3.365            3.039     62.87   2505.20
         B          3.336            3.039     62.89   2505.99
         B          3.336            3.039     62.89   2505.99
         B          3.343            3.039     62.89   2505.82
         B          3.345            3.039     62.89   2505.77
         B          3.365            3.039     62.87   2505.20
         N          3.160            2.478     31.21    688.47
         B          3.340            3.039     62.89   2505.89
         B          3.339            3.039     62.89   2505.92
         B          3.336            3.039     62.89   2506.00
         N          3.139            2.478     31.22    688.66
         N          3.138            2.478     31.22    688.66
         N          3.134            2.478     31.22    688.70
         N          3.134            2.478     31.22    688.70
         N          3.135            2.478     31.22    688.69
         N          3.135            2.478     31.22    688.69
         B          3.336            3.039     62.89   2506.00
         Cr1        0.102            3.252   1381.48 127494.76
         Cr2        0.102            3.252   1381.48 127494.76

         Molecular C6 ( Ry / a.u.^6 ) =     79164.60


     Subspace diagonalization in iterative solution of the eigenvalue problem:
     one sub-group per band group will be used
     scalapack distributed-memory algorithm (size of sub-group:  6*  6 procs)

 
     Parallelization info
     --------------------
     sticks:   dense  smooth     PW     G-vecs:    dense   smooth      PW
     Min         235      98     26                36277     9874    1408
     Max         236      99     27                36282     9883    1425
     Sum       11311    4741   1285              1741401   474235   68095
 


     bravais-lattice index     =            4
     lattice parameter (alat)  =      18.9275  a.u.
     unit-cell volume          =   10553.3021 (a.u.)^3
     number of atoms/cell      =           34
     number of atomic types    =            4
     number of electrons       =       156.00
     number of Kohn-Sham states=           94
     kinetic-energy cutoff     =      48.0000  Ry
     charge density cutoff     =     457.0000  Ry
     scf convergence threshold =      1.0E-07
     mixing beta               =       0.5000
     number of iterations used =            8  plain     mixing
     Exchange-correlation= SLA  PW   PBX  PBC
                           (   1   4   3   4   0   0   0)

     celldm(1)=  18.927497  celldm(2)=   0.000000  celldm(3)=   1.797125
     celldm(4)=   0.000000  celldm(5)=   0.000000  celldm(6)=   0.000000

     crystal axes: (cart. coord. in units of alat)
               a(1) = (   1.000000   0.000000   0.000000 )  
               a(2) = (  -0.500000   0.866025   0.000000 )  
               a(3) = (   0.000000   0.000000   1.797125 )  

     reciprocal axes: (cart. coord. in units 2 pi/alat)
               b(1) = (  1.000000  0.577350  0.000000 )  
               b(2) = (  0.000000  1.154701  0.000000 )  
               b(3) = (  0.000000  0.000000  0.556444 )  


     PseudoPot. # 1 for B  read from file:
     /home/sf05/q-e-qe-6.7MaX-Release/pseudo/B.pbe-n-kjpaw_psl.1.0.0.UPF
     MD5 check sum: d9c678ba5d3b2fd7b74e61139c9288d8
     Pseudo is Projector augmented-wave + core cor, Zval =  3.0
     Generated using "atomic" code by A. Dal Corso  v.5.1.2
     Shape of augmentation charge: PSQ
     Using radial grid of 1059 points,  4 beta functions with: 
                l(1) =   0
                l(2) =   0
                l(3) =   1
                l(4) =   1
     Q(r) pseudized with 0 coefficients 


     PseudoPot. # 2 for N  read from file:
     /home/sf05/q-e-qe-6.7MaX-Release/pseudo/N.pbe-n-kjpaw_psl.1.0.0.UPF
     MD5 check sum: e0e4e94a9c4025c5b51bd7d8793849bd
     Pseudo is Projector augmented-wave + core cor, Zval =  5.0
     Generated using "atomic" code by A. Dal Corso  v.5.1.2
     Shape of augmentation charge: PSQ
     Using radial grid of 1085 points,  4 beta functions with: 
                l(1) =   0
                l(2) =   0
                l(3) =   1
                l(4) =   1
     Q(r) pseudized with 0 coefficients 


     PseudoPot. # 3 for Cr read from file:
     /home/sf05/q-e-qe-6.7MaX-Release/pseudo/Cr.pbe-spn-kjpaw_psl.1.0.0.UPF
     MD5 check sum: 198f1a2427a48552563eee314eba32ba
     Pseudo is Projector augmented-wave + core cor, Zval = 14.0
     Generated using &quot;atomic&quot; code by A. Dal Corso  v.6.3
     Shape of augmentation charge: PSQ
     Using radial grid of 1183 points,  6 beta functions with: 
                l(1) =   0
                l(2) =   0
                l(3) =   1
                l(4) =   1
                l(5) =   2
                l(6) =   2
     Q(r) pseudized with 0 coefficients 


     PseudoPot. # 4 for Cr read from file:
     /home/sf05/q-e-qe-6.7MaX-Release/pseudo/Cr.pbe-spn-kjpaw_psl.1.0.0.UPF
     MD5 check sum: 198f1a2427a48552563eee314eba32ba
     Pseudo is Projector augmented-wave + core cor, Zval = 14.0
     Generated using &quot;atomic&quot; code by A. Dal Corso  v.6.3
     Shape of augmentation charge: PSQ
     Using radial grid of 1183 points,  6 beta functions with: 
                l(1) =   0
                l(2) =   0
                l(3) =   1
                l(4) =   1
                l(5) =   2
                l(6) =   2
     Q(r) pseudized with 0 coefficients 


     atomic species   valence    mass     pseudopotential
        B              3.00    10.81100     B ( 1.00)
        N              5.00    14.00674     N ( 1.00)
        Cr1           14.00    51.99610     Cr( 1.00)
        Cr2           14.00    51.99610     Cr( 1.00)

     Starting magnetic structure 
     atomic species   magnetization
        B            0.000
        N            0.000
        Cr1          1.000
        Cr2          1.000

     No symmetry found



   Cartesian axes

     site n.     atom                  positions (alat units)
         1           B   tau(   1) = (  -0.1250000   0.2165064   0.8985623  )
         2           B   tau(   2) = (   0.3750000   0.6495191   0.8985623  )
         3           B   tau(   3) = (   0.2500000   0.0000000   0.8985623  )
         4           B   tau(   4) = (   0.7500000   0.0000000   0.8985623  )
         5           B   tau(   5) = (   0.1250000   0.2165064   0.8985623  )
         6           B   tau(   6) = (  -0.3750000   0.6495191   0.8985623  )
         7           N   tau(   7) = (   0.7500005   0.2886748   0.8985623  )
         8           N   tau(   8) = (   0.3750005   0.5051812   0.8985623  )
         9           N   tau(   9) = (   0.3750005   0.0721685   0.8985623  )
        10           N   tau(  10) = (   0.6250005   0.0721685   0.8985623  )
        11           N   tau(  11) = (   0.2500005   0.2886748   0.8985623  )
        12           N   tau(  12) = (   0.6250005   0.5051812   0.8985623  )
        13           N   tau(  13) = (   0.0000005   0.2886748   0.8985623  )
        14           N   tau(  14) = (   0.2500005   0.7216875   0.8985623  )
        15           N   tau(  15) = (  -0.2499995   0.7216875   0.8985623  )
        16           B   tau(  16) = (   0.0000000   0.4330127   0.8985623  )
        17           B   tau(  17) = (   0.1250000   0.6495191   0.8985623  )
        18           B   tau(  18) = (  -0.1250000   0.6495191   0.8985623  )
        19           B   tau(  19) = (   0.3750000   0.2165064   0.8985623  )
        20           B   tau(  20) = (   0.6250000   0.2165064   0.8985623  )
        21           B   tau(  21) = (   0.5000000   0.4330127   0.8985623  )
        22           N   tau(  22) = (   0.5000005   0.2886748   0.8985623  )
        23           B   tau(  23) = (  -0.2500000   0.4330127   0.8985623  )
        24           B   tau(  24) = (   0.2500000   0.4330127   0.8985623  )
        25           B   tau(  25) = (   0.5000000   0.0000000   0.8985623  )
        26           N   tau(  26) = (  -0.1249995   0.5051812   0.8985623  )
        27           N   tau(  27) = (   0.1250005   0.5051812   0.8985623  )
        28           N   tau(  28) = (   0.0000005   0.7216875   0.8985623  )
        29           N   tau(  29) = (   0.5000005   0.7216875   0.8985623  )
        30           N   tau(  30) = (   0.1250005   0.0721685   0.8985623  )
        31           N   tau(  31) = (   0.8750005   0.0721685   0.8985623  )
        32           B   tau(  32) = (   0.0000000   0.0000000   0.8985623  )
        33           Cr1 tau(  33) = (   0.5100000   0.3464102   1.2040735  )
        34           Cr2 tau(  34) = (  -0.0100000   0.3464102   1.2040735  )

     number of k points=    15  Gaussian smearing, width (Ry)=  0.0000
                       cart. coord. in units 2pi/alat
        k(    1) = (   0.1666667   0.2886751   0.0000000), wk =   0.0740741
        k(    2) = (   0.1666667  -0.4811252   0.0000000), wk =   0.0740741
        k(    3) = (   0.1666667  -0.0962250   0.0000000), wk =   0.0740741
        k(    4) = (  -0.5000000  -0.8660254   0.0000000), wk =   0.0370370
        k(    5) = (  -0.1666667   0.2886751   0.0000000), wk =   0.0740741
        k(    6) = (   0.3333333   0.0000000   0.0000000), wk =   0.0740741
        k(    7) = (  -0.1666667  -0.4811252   0.0000000), wk =   0.0740741
        k(    8) = (   0.5000000  -0.0962250   0.0000000), wk =   0.0740741
        k(    9) = (  -0.3333333  -0.3849002   0.0000000), wk =   0.0740741
        k(   10) = (   0.5000000   0.0962250   0.0000000), wk =   0.0740741
        k(   11) = (  -0.3333333   0.3849002   0.0000000), wk =   0.0740741
        k(   12) = (  -0.1666667  -0.0962250   0.0000000), wk =   0.0740741
        k(   13) = (  -0.0000000  -0.1924501   0.0000000), wk =   0.0740741
        k(   14) = (   0.5000000  -0.8660254   0.0000000), wk =   0.0370370
        k(   15) = (  -1.0000000   0.0000000   0.0000000), wk =   0.0370370

     Dense  grid:  1741401 G-vectors     FFT dimensions: ( 135, 135, 240)

     Smooth grid:   474235 G-vectors     FFT dimensions: (  90,  90, 160)

     Estimated max dynamical RAM per process >     218.62 MB

     Estimated total dynamical RAM >      10.25 GB
     Generating pointlists ...
     new r_m :   0.0595 (alat units)  1.1269 (a.u.) for type    1
     new r_m :   0.0595 (alat units)  1.1269 (a.u.) for type    2
     new r_m :   0.1283 (alat units)  2.4288 (a.u.) for type    3
     new r_m :   0.1283 (alat units)  2.4288 (a.u.) for type    4

     Initial potential from superposition of free atoms

     starting charge  155.99382, renormalised to  156.00000

     negative rho (up, down):  6.506E-03 4.655E-04
     Starting wfcs are  148 randomized atomic wfcs
     Checking if some PAW data can be deallocated... 

     total cpu time spent up to now is       20.1 secs

     Self-consistent Calculation

     iteration #  1     ecut=    48.00 Ry     beta= 0.50
     Davidson diagonalization with overlap
     ethr =  1.00E-02,  avg # of iterations =  2.8

     negative rho (up, down):  4.693E-03 2.946E-03

     total cpu time spent up to now is       62.4 secs

     total energy              =   -1130.76762587 Ry
     estimated scf accuracy    <      11.36991486 Ry

     total magnetization       =    12.00 Bohr mag/cell
     absolute magnetization    =    12.16 Bohr mag/cell

     iteration #  2     ecut=    48.00 Ry     beta= 0.50
     Davidson diagonalization with overlap
     ethr =  7.29E-03,  avg # of iterations =  2.6

     negative rho (up, down):  7.056E-03 1.091E-02

     total cpu time spent up to now is      102.6 secs

     total energy              =   -1133.09591274 Ry
     estimated scf accuracy    <       3.16958627 Ry

     total magnetization       =    12.00 Bohr mag/cell
     absolute magnetization    =    12.00 Bohr mag/cell

     iteration #  3     ecut=    48.00 Ry     beta= 0.50
     Davidson diagonalization with overlap
     ethr =  2.03E-03,  avg # of iterations =  6.6

     negative rho (up, down):  3.383E-03 5.944E-03

     total cpu time spent up to now is      142.6 secs

     total energy              =   -1133.63778129 Ry
     estimated scf accuracy    <       0.62960968 Ry

     total magnetization       =    12.00 Bohr mag/cell
     absolute magnetization    =    12.05 Bohr mag/cell

     iteration #  4     ecut=    48.00 Ry     beta= 0.50
     Davidson diagonalization with overlap
     ethr =  4.04E-04,  avg # of iterations =  6.6

     negative rho (up, down):  6.873E-03 1.411E-02

     total cpu time spent up to now is      182.0 secs

     total energy              =   -1133.79507185 Ry
     estimated scf accuracy    <       0.25112864 Ry

     total magnetization       =    12.00 Bohr mag/cell
     absolute magnetization    =    12.01 Bohr mag/cell

     iteration #  5     ecut=    48.00 Ry     beta= 0.50
     Davidson diagonalization with overlap
     c_bands:  1 eigenvalues not converged
     ethr =  1.61E-04,  avg # of iterations =  9.4

     negative rho (up, down):  4.463E-03 9.745E-03

     total cpu time spent up to now is      224.7 secs

     total energy              =   -1133.80798581 Ry
     estimated scf accuracy    <       0.01737374 Ry

     total magnetization       =    12.00 Bohr mag/cell
     absolute magnetization    =    12.00 Bohr mag/cell

     iteration #  6     ecut=    48.00 Ry     beta= 0.50
     Davidson diagonalization with overlap
     c_bands:  2 eigenvalues not converged
     c_bands:  1 eigenvalues not converged
     c_bands:  2 eigenvalues not converged
     c_bands:  1 eigenvalues not converged
     c_bands:  4 eigenvalues not converged
     c_bands:  1 eigenvalues not converged
     c_bands:  1 eigenvalues not converged
     c_bands:  3 eigenvalues not converged
     ethr =  1.11E-05,  avg # of iterations = 14.0

     negative rho (up, down):  3.329E-03 7.792E-03

     total cpu time spent up to now is      284.5 secs

     total energy              =   -1133.81046158 Ry
     estimated scf accuracy    <       0.00433385 Ry

     total magnetization       =    12.00 Bohr mag/cell
     absolute magnetization    =    12.00 Bohr mag/cell

     iteration #  7     ecut=    48.00 Ry     beta= 0.50
     Davidson diagonalization with overlap
     c_bands:  1 eigenvalues not converged
     c_bands:  2 eigenvalues not converged
     ethr =  2.78E-06,  avg # of iterations =  9.2

     negative rho (up, down):  3.001E-03 7.537E-03

     total cpu time spent up to now is      331.3 secs

     total energy              =   -1133.81143509 Ry
     estimated scf accuracy    <       0.00030759 Ry

     total magnetization       =    12.00 Bohr mag/cell
     absolute magnetization    =    12.00 Bohr mag/cell

     iteration #  8     ecut=    48.00 Ry     beta= 0.50
     Davidson diagonalization with overlap
     ethr =  1.97E-07,  avg # of iterations =  5.0

     negative rho (up, down):  2.869E-03 7.341E-03

     total cpu time spent up to now is      370.7 secs

     total energy              =   -1133.81153563 Ry
     estimated scf accuracy    <       0.00006302 Ry

     total magnetization       =    12.00 Bohr mag/cell
     absolute magnetization    =    12.00 Bohr mag/cell

     iteration #  9     ecut=    48.00 Ry     beta= 0.50
     Davidson diagonalization with overlap
     ethr =  4.04E-08,  avg # of iterations =  2.1

     negative rho (up, down):  2.830E-03 7.306E-03

     total cpu time spent up to now is      410.0 secs

     total energy              =   -1133.81159133 Ry
     estimated scf accuracy    <       0.00000558 Ry

     total magnetization       =    12.00 Bohr mag/cell
     absolute magnetization    =    12.00 Bohr mag/cell

     iteration # 10     ecut=    48.00 Ry     beta= 0.50
     Davidson diagonalization with overlap
     ethr =  3.58E-09,  avg # of iterations =  4.3

     negative rho (up, down):  2.818E-03 7.303E-03

     total cpu time spent up to now is      450.5 secs

     total energy              =   -1133.81160766 Ry
     estimated scf accuracy    <       0.00000289 Ry

     total magnetization       =    12.00 Bohr mag/cell
     absolute magnetization    =    12.00 Bohr mag/cell

     iteration # 11     ecut=    48.00 Ry     beta= 0.50
     Davidson diagonalization with overlap
     ethr =  1.86E-09,  avg # of iterations =  2.3

     negative rho (up, down):  2.815E-03 7.305E-03

     total cpu time spent up to now is      490.3 secs

     total energy              =   -1133.81161887 Ry
     estimated scf accuracy    <       0.00000023 Ry

     total magnetization       =    12.00 Bohr mag/cell
     absolute magnetization    =    12.00 Bohr mag/cell

     iteration # 12     ecut=    48.00 Ry     beta= 0.50
     Davidson diagonalization with overlap
     ethr =  1.49E-10,  avg # of iterations =  4.5

     negative rho (up, down):  2.812E-03 7.309E-03
 
     Magnetic moment per site:
     atom:    1    charge:    0.8804    magn:    0.0008    constr:    0.0000
     atom:    2    charge:    0.8803    magn:    0.0003    constr:    0.0000
     atom:    3    charge:    0.8803    magn:    0.0001    constr:    0.0000
     atom:    4    charge:    0.8803    magn:    0.0001    constr:    0.0000
     atom:    5    charge:    0.8804    magn:    0.0009    constr:    0.0000
     atom:    6    charge:    0.8803    magn:    0.0004    constr:    0.0000
     atom:    7    charge:    2.8607    magn:    0.0048    constr:    0.0000
     atom:    8    charge:    2.8607    magn:    0.0043    constr:    0.0000
     atom:    9    charge:    2.8609    magn:    0.0010    constr:    0.0000
     atom:   10    charge:    2.8609    magn:    0.0012    constr:    0.0000
     atom:   11    charge:    2.8607    magn:    0.0035    constr:    0.0000
     atom:   12    charge:    2.8607    magn:    0.0049    constr:    0.0000
     atom:   13    charge:    2.8597    magn:    0.0113    constr:    0.0000
     atom:   14    charge:    2.8599    magn:    0.0001    constr:    0.0000
     atom:   15    charge:    2.8599    magn:    0.0002    constr:    0.0000
     atom:   16    charge:    0.8805    magn:    0.0004    constr:    0.0000
     atom:   17    charge:    0.8800    magn:    0.0003    constr:    0.0000
     atom:   18    charge:    0.8800    magn:    0.0004    constr:    0.0000
     atom:   19    charge:    0.8798    magn:    0.0009    constr:    0.0000
     atom:   20    charge:    0.8799    magn:    0.0008    constr:    0.0000
     atom:   21    charge:    0.8803    magn:    0.0004    constr:    0.0000
     atom:   22    charge:    2.8610    magn:    0.0113    constr:    0.0000
     atom:   23    charge:    0.8798    magn:    0.0003    constr:    0.0000
     atom:   24    charge:    0.8798    magn:    0.0003    constr:    0.0000
     atom:   25    charge:    0.8799    magn:    0.0002    constr:    0.0000
     atom:   26    charge:    2.8596    magn:    0.0049    constr:    0.0000
     atom:   27    charge:    2.8596    magn:    0.0043    constr:    0.0000
     atom:   28    charge:    2.8598    magn:    0.0004    constr:    0.0000
     atom:   29    charge:    2.8596    magn:    0.0004    constr:    0.0000
     atom:   30    charge:    2.8595    magn:    0.0010    constr:    0.0000
     atom:   31    charge:    2.8595    magn:    0.0012    constr:    0.0000
     atom:   32    charge:    0.8802    magn:    0.0002    constr:    0.0000
     atom:   33    charge:   12.8030    magn:    4.7935    constr:    0.0000
     atom:   34    charge:   12.8030    magn:    4.7935    constr:    0.0000

     total cpu time spent up to now is      528.1 secs

     End of self-consistent calculation

 ------ SPIN UP ------------


          k = 0.1667 0.2887 0.0000 ( 59267 PWs)   bands (ev):

   -72.4653 -72.4650 -43.9302 -43.9299 -43.9267 -43.9263 -43.9189 -43.9185
   -21.2752 -20.6890 -20.6841 -20.1415 -20.1157 -19.6152 -19.6113 -19.1275
   -18.7264 -18.7197 -18.4937 -18.4703 -18.2227 -18.1133 -18.1051 -17.8772
   -12.5117 -12.2398 -12.2230 -11.8486 -11.8449 -11.6856 -11.2192 -11.2163
   -10.4204 -10.3945 -10.1449 -10.1427  -9.6165  -9.6154  -8.8651  -8.8592
    -8.8454  -8.7932  -8.7895  -8.6232  -8.2244  -8.0732  -8.0554  -7.8593
    -7.8520  -7.4657  -7.4646  -7.3358  -7.2624  -7.2356  -7.2339  -6.9949
    -6.9755  -6.5862  -6.5757  -6.1811  -6.1803  -5.9001  -5.4462  -5.3235
    -5.3054  -5.2276  -4.9612  -4.9096  -4.5343  -4.3856  -4.3676  -4.0062
    -2.2652  -1.6310  -1.4184  -1.4103  -1.3986  -1.3931  -1.3763  -1.3570
    -1.3397  -1.3022  -1.2977  -1.2735   0.6292   0.7551   1.0779   1.1536
     1.1805   1.4001   1.4496   1.5557   1.5689   1.6510

          k = 0.1667-0.4811 0.0000 ( 59291 PWs)   bands (ev):

   -72.4653 -72.4650 -43.9302 -43.9299 -43.9267 -43.9263 -43.9189 -43.9185
   -21.1454 -20.9394 -20.7516 -20.1894 -19.8324 -19.4950 -19.3440 -19.2038
   -19.0418 -18.8084 -18.6697 -18.5706 -18.1779 -18.1152 -17.9507 -17.7514
   -12.3758 -12.1409 -12.0722 -11.9335 -11.7074 -11.6862 -11.5797 -10.9692
   -10.9180 -10.6515 -10.5502  -9.8879  -9.7205  -9.3635  -9.1386  -8.6972
    -8.6503  -8.5807  -8.4164  -8.3937  -8.1893  -8.1565  -8.0903  -8.0775
    -7.7163  -7.6507  -7.5217  -7.5010  -7.3868  -7.1979  -7.0951  -6.8886
    -6.6498  -6.4194  -6.2014  -6.1849  -6.0051  -5.9570  -5.8111  -5.7708
    -5.4785  -5.4341  -5.2367  -5.0668  -4.4748  -4.3722  -4.1200  -3.7938
    -2.2557  -1.6382  -1.4166  -1.4098  -1.3981  -1.3898  -1.3811  -1.3564
    -1.3399  -1.3015  -1.2981  -1.2734   0.6143   0.6316   1.0128   1.1304
     1.1538   1.2248   1.3524   1.7475   1.8002   1.9080

          k = 0.1667-0.0962 0.0000 ( 59226 PWs)   bands (ev):

   -72.4653 -72.4650 -43.9302 -43.9298 -43.9267 -43.9263 -43.9189 -43.9185
   -21.3416 -20.5651 -20.3720 -20.3684 -20.0153 -20.0101 -19.8329 -18.7560
   -18.7532 -18.4096 -18.3879 -18.3870 -18.3034 -18.2812 -18.1032 -18.0997
   -12.5402 -12.5250 -12.4347 -11.6076 -11.6048 -11.4616 -11.4401 -10.9525
   -10.9518  -9.9556  -9.9553  -9.7036  -9.4067  -9.3952  -9.2579  -9.2557
    -9.0694  -9.0671  -8.9521  -8.3502  -8.3499  -7.9310  -7.9238  -7.9146
    -7.8732  -7.7975  -7.6322  -7.6191  -7.1491  -7.1334  -6.9872  -6.9149
    -6.9133  -6.8780  -6.5572  -6.5567  -6.2848  -5.3683  -5.3598  -5.1707
    -5.0929  -4.8479  -4.8094  -4.7925  -4.6554  -4.6172  -4.3725  -4.3652
    -2.2748  -1.6236  -1.4201  -1.4108  -1.4001  -1.3962  -1.3721  -1.3576
    -1.3395  -1.3031  -1.2972  -1.2737   0.6450   0.8631   1.0652   1.1455
     1.2418   1.3155   1.3605   1.5544   1.6161   1.6477

          k =-0.5000-0.8660 0.0000 ( 59292 PWs)   bands (ev):

   -72.4653 -72.4650 -43.9303 -43.9299 -43.9267 -43.9263 -43.9189 -43.9185
   -21.0785 -21.0747 -20.4951 -20.4945 -19.4600 -19.4584 -19.4327 -19.4322
   -19.0197 -19.0169 -18.3597 -18.3575 -18.3383 -18.3323 -17.8191 -17.8183
   -12.1021 -12.0993 -12.0868 -12.0825 -11.9033 -11.9021 -11.3567 -11.3544
   -10.2619 -10.2613 -10.1622 -10.1615 -10.1543 -10.1537  -8.6019  -8.5925
    -8.5770  -8.5751  -8.5703  -8.5665  -7.8914  -7.8908  -7.8873  -7.8870
    -7.8482  -7.8475  -7.7984  -7.7964  -7.5168  -7.5137  -6.6373  -6.6365
    -6.3912  -6.3854  -6.3165  -6.3145  -6.2171  -6.2150  -5.7340  -5.7310
    -5.5726  -5.5698  -4.7607  -4.7556  -4.7213  -4.7117  -3.9067  -3.9048
    -2.0576  -1.9101  -1.4036  -1.3894  -1.3888  -1.3840  -1.3809  -1.3748
    -1.3666  -1.3641  -1.2985  -1.2904   0.9524   0.9851   1.1317   1.1783
     1.3599   1.3698   1.4398   1.4881   1.6260   1.6314

          k =-0.1667 0.2887 0.0000 ( 59267 PWs)   bands (ev):

   -72.4653 -72.4650 -43.9302 -43.9299 -43.9267 -43.9263 -43.9189 -43.9185
   -21.2752 -20.6890 -20.6841 -20.1415 -20.1157 -19.6152 -19.6113 -19.1275
   -18.7264 -18.7197 -18.4937 -18.4703 -18.2227 -18.1133 -18.1051 -17.8772
   -12.5117 -12.2398 -12.2230 -11.8486 -11.8449 -11.6856 -11.2192 -11.2162
   -10.4204 -10.3944 -10.1449 -10.1427  -9.6165  -9.6154  -8.8651  -8.8591
    -8.8453  -8.7933  -8.7895  -8.6232  -8.2245  -8.0732  -8.0554  -7.8593
    -7.8519  -7.4658  -7.4646  -7.3358  -7.2624  -7.2356  -7.2338  -6.9949
    -6.9756  -6.5862  -6.5757  -6.1811  -6.1803  -5.9001  -5.4463  -5.3235
    -5.3054  -5.2275  -4.9612  -4.9096  -4.5344  -4.3856  -4.3676  -4.0062
    -2.2652  -1.6310  -1.4184  -1.4103  -1.3986  -1.3931  -1.3763  -1.3570
    -1.3397  -1.3022  -1.2976  -1.2735   0.6292   0.7551   1.0779   1.1537
     1.1805   1.4001   1.4495   1.5556   1.5690   1.6510

          k = 0.3333 0.0000 0.0000 ( 59267 PWs)   bands (ev):

   -72.4653 -72.4650 -43.9302 -43.9299 -43.9267 -43.9263 -43.9189 -43.9185
   -21.2747 -20.7167 -20.6561 -20.1386 -20.1171 -19.6438 -19.5847 -19.1298
   -18.7444 -18.6957 -18.4942 -18.4725 -18.2176 -18.1378 -18.0877 -17.8763
   -12.5113 -12.2378 -12.2248 -11.8575 -11.8386 -11.6835 -11.2383 -11.1978
   -10.4183 -10.3951 -10.1590 -10.1292  -9.6232  -9.6074  -8.8704  -8.8549
    -8.8419  -8.8171  -8.7670  -8.6241  -8.2263  -8.1361  -7.9914  -7.8568
    -7.8518  -7.4724  -7.4580  -7.3254  -7.2691  -7.2461  -7.2228  -6.9944
    -6.9776  -6.6499  -6.5191  -6.1843  -6.1761  -5.9064  -5.4457  -5.3403
    -5.2762  -5.2282  -4.9644  -4.9111  -4.5239  -4.4169  -4.3482  -4.0065
    -2.1740  -1.7676  -1.4117  -1.3993  -1.3953  -1.3911  -1.3762  -1.3628
    -1.3537  -1.3467  -1.3007  -1.2883   0.9394   1.0344   1.1058   1.1938
     1.2107   1.3354   1.4436   1.4813   1.5411   1.5987

          k =-0.1667-0.4811 0.0000 ( 59291 PWs)   bands (ev):

   -72.4653 -72.4650 -43.9302 -43.9299 -43.9267 -43.9263 -43.9189 -43.9185
   -21.1454 -20.9394 -20.7516 -20.1894 -19.8324 -19.4950 -19.3440 -19.2038
   -19.0418 -18.8084 -18.6697 -18.5706 -18.1780 -18.1152 -17.9507 -17.7514
   -12.3758 -12.1409 -12.0722 -11.9335 -11.7074 -11.6862 -11.5797 -10.9692
   -10.9180 -10.6515 -10.5502  -9.8879  -9.7205  -9.3635  -9.1386  -8.6972
    -8.6503  -8.5807  -8.4163  -8.3937  -8.1892  -8.1565  -8.0903  -8.0776
    -7.7163  -7.6508  -7.5216  -7.5010  -7.3868  -7.1979  -7.0951  -6.8886
    -6.6498  -6.4194  -6.2015  -6.1849  -6.0051  -5.9569  -5.8110  -5.7708
    -5.4786  -5.4341  -5.2367  -5.0668  -4.4748  -4.3722  -4.1200  -3.7938
    -2.2557  -1.6382  -1.4166  -1.4098  -1.3981  -1.3898  -1.3811  -1.3564
    -1.3399  -1.3015  -1.2981  -1.2734   0.6143   0.6316   1.0128   1.1304
     1.1538   1.2247   1.3524   1.7475   1.8002   1.9086

          k = 0.5000-0.0962 0.0000 ( 59291 PWs)   bands (ev):

   -72.4653 -72.4650 -43.9302 -43.9299 -43.9267 -43.9263 -43.9189 -43.9185
   -21.1421 -20.9486 -20.7454 -20.1874 -19.8327 -19.4960 -19.3527 -19.1974
   -19.0428 -18.8079 -18.6588 -18.5783 -18.1646 -18.1342 -17.9464 -17.7513
   -12.3745 -12.1415 -12.0698 -11.9380 -11.7208 -11.6701 -11.5824 -10.9702
   -10.9150 -10.6494 -10.5529  -9.8854  -9.7213  -9.3647  -9.1378  -8.6844
    -8.6512  -8.5788  -8.4311  -8.4209  -8.1863  -8.1313  -8.1051  -8.0640
    -7.7119  -7.6517  -7.5203  -7.5028  -7.3806  -7.1996  -7.0957  -6.8907
    -6.6501  -6.4218  -6.2299  -6.1843  -5.9855  -5.9559  -5.8102  -5.7734
    -5.4803  -5.4273  -5.2135  -5.0853  -4.4478  -4.4078  -4.1123  -3.7953
    -2.0581  -1.9096  -1.4036  -1.3916  -1.3879  -1.3842  -1.3809  -1.3742
    -1.3666  -1.3641  -1.2985  -1.2904   0.8969   0.9793   1.1263   1.1621
     1.2796   1.3645   1.4539   1.4644   1.5486   1.7258

          k =-0.3333-0.3849 0.0000 ( 59291 PWs)   bands (ev):

   -72.4653 -72.4650 -43.9302 -43.9299 -43.9267 -43.9263 -43.9189 -43.9185
   -21.1432 -20.9454 -20.7477 -20.1873 -19.8345 -19.4945 -19.3468 -19.2007
   -19.0469 -18.8057 -18.6605 -18.5772 -18.1673 -18.1309 -17.9465 -17.7515
   -12.3752 -12.1393 -12.0726 -11.9365 -11.7088 -11.6838 -11.5812 -10.9697
   -10.9151 -10.6487 -10.5538  -9.8862  -9.7214  -9.3643  -9.1384  -8.6888
    -8.6494  -8.5808  -8.4214  -8.4147  -8.1887  -8.1396  -8.0900  -8.0802
    -7.7127  -7.6492  -7.5288  -7.4954  -7.3805  -7.1998  -7.0963  -6.8957
    -6.6476  -6.4171  -6.2110  -6.1873  -5.9962  -5.9549  -5.8106  -5.7866
    -5.4798  -5.4213  -5.2139  -5.0850  -4.4519  -4.4042  -4.1119  -3.7951
    -2.1588  -1.7813  -1.4101  -1.3982  -1.3926  -1.3880  -1.3812  -1.3638
    -1.3540  -1.3476  -1.2997  -1.2885   0.7835   0.9765   1.0629   1.1379
     1.1816   1.2454   1.3344   1.5164   1.7013   1.8413

          k = 0.5000 0.0962 0.0000 ( 59291 PWs)   bands (ev):

   -72.4653 -72.4650 -43.9302 -43.9299 -43.9267 -43.9263 -43.9189 -43.9185
   -21.1421 -20.9486 -20.7454 -20.1875 -19.8327 -19.4960 -19.3527 -19.1974
   -19.0428 -18.8079 -18.6588 -18.5783 -18.1646 -18.1342 -17.9464 -17.7513
   -12.3745 -12.1415 -12.0698 -11.9381 -11.7208 -11.6701 -11.5824 -10.9702
   -10.9150 -10.6494 -10.5529  -9.8854  -9.7213  -9.3647  -9.1378  -8.6844
    -8.6512  -8.5788  -8.4311  -8.4209  -8.1864  -8.1313  -8.1051  -8.0640
    -7.7119  -7.6516  -7.5203  -7.5029  -7.3806  -7.1997  -7.0956  -6.8907
    -6.6501  -6.4218  -6.2299  -6.1842  -5.9855  -5.9559  -5.8103  -5.7734
    -5.4803  -5.4274  -5.2135  -5.0853  -4.4478  -4.4077  -4.1124  -3.7953
    -2.0581  -1.9096  -1.4036  -1.3916  -1.3879  -1.3842  -1.3809  -1.3742
    -1.3666  -1.3641  -1.2985  -1.2904   0.8969   0.9793   1.1263   1.1621
     1.2796   1.3645   1.4540   1.4644   1.5486   1.7256

          k =-0.3333 0.3849 0.0000 ( 59291 PWs)   bands (ev):

   -72.4653 -72.4650 -43.9302 -43.9299 -43.9267 -43.9263 -43.9189 -43.9185
   -21.1432 -20.9455 -20.7477 -20.1873 -19.8345 -19.4945 -19.3468 -19.2007
   -19.0469 -18.8057 -18.6605 -18.5772 -18.1672 -18.1309 -17.9466 -17.7515
   -12.3752 -12.1393 -12.0726 -11.9365 -11.7088 -11.6838 -11.5811 -10.9697
   -10.9151 -10.6486 -10.5538  -9.8862  -9.7214  -9.3643  -9.1384  -8.6888
    -8.6494  -8.5808  -8.4214  -8.4147  -8.1887  -8.1396  -8.0900  -8.0802
    -7.7126  -7.6492  -7.5288  -7.4954  -7.3805  -7.1998  -7.0964  -6.8957
    -6.6476  -6.4171  -6.2110  -6.1873  -5.9961  -5.9550  -5.8105  -5.7866
    -5.4797  -5.4213  -5.2139  -5.0850  -4.4519  -4.4042  -4.1119  -3.7951
    -2.1588  -1.7813  -1.4101  -1.3982  -1.3926  -1.3880  -1.3812  -1.3638
    -1.3540  -1.3476  -1.2997  -1.2885   0.7835   0.9765   1.0628   1.1379
     1.1817   1.2454   1.3344   1.5164   1.7013   1.8412

          k =-0.1667-0.0962 0.0000 ( 59226 PWs)   bands (ev):

   -72.4653 -72.4650 -43.9302 -43.9298 -43.9267 -43.9263 -43.9189 -43.9185
   -21.3416 -20.5651 -20.3720 -20.3684 -20.0153 -20.0101 -19.8329 -18.7560
   -18.7532 -18.4096 -18.3879 -18.3870 -18.3034 -18.2812 -18.1032 -18.0997
   -12.5402 -12.5250 -12.4347 -11.6076 -11.6048 -11.4616 -11.4401 -10.9525
   -10.9518  -9.9556  -9.9553  -9.7035  -9.4067  -9.3952  -9.2579  -9.2558
    -9.0694  -9.0671  -8.9521  -8.3502  -8.3499  -7.9310  -7.9238  -7.9146
    -7.8731  -7.7975  -7.6322  -7.6191  -7.1491  -7.1334  -6.9872  -6.9149
    -6.9133  -6.8780  -6.5572  -6.5566  -6.2848  -5.3683  -5.3598  -5.1706
    -5.0930  -4.8479  -4.8094  -4.7926  -4.6553  -4.6172  -4.3725  -4.3652
    -2.2748  -1.6236  -1.4201  -1.4108  -1.4001  -1.3962  -1.3721  -1.3576
    -1.3395  -1.3031  -1.2972  -1.2737   0.6450   0.8631   1.0652   1.1454
     1.2418   1.3155   1.3605   1.5544   1.6162   1.6477

          k =-0.0000-0.1925 0.0000 ( 59226 PWs)   bands (ev):

   -72.4653 -72.4650 -43.9302 -43.9299 -43.9267 -43.9263 -43.9189 -43.9185
   -21.3417 -20.5586 -20.3915 -20.3595 -20.0202 -19.9963 -19.8376 -18.7656
   -18.7384 -18.4393 -18.3910 -18.3757 -18.2810 -18.2805 -18.1168 -18.0928
   -12.5384 -12.5276 -12.4339 -11.6165 -11.5974 -11.4566 -11.4418 -10.9572
   -10.9492  -9.9605  -9.9500  -9.7042  -9.4068  -9.3938  -9.2588  -9.2554
    -9.0685  -9.0684  -8.9530  -8.3529  -8.3458  -7.9324  -7.9239  -7.8879
    -7.8702  -7.7994  -7.6995  -7.5924  -7.1588  -7.0924  -6.9852  -6.9206
    -6.9096  -6.8954  -6.5626  -6.5504  -6.2855  -5.3939  -5.3190  -5.1713
    -5.0924  -4.9116  -4.8087  -4.7693  -4.6216  -4.6123  -4.4083  -4.3434
    -2.3066  -1.5776  -1.4223  -1.4150  -1.4016  -1.3966  -1.3723  -1.3554
    -1.3341  -1.3036  -1.2901  -1.2325   0.4736   0.7919   1.0279   1.1167
     1.2216   1.3598   1.3668   1.5878   1.6414   1.7263

          k = 0.5000-0.8660 0.0000 ( 59292 PWs)   bands (ev):

   -72.4653 -72.4650 -43.9303 -43.9299 -43.9267 -43.9263 -43.9189 -43.9185
   -21.0785 -21.0747 -20.4951 -20.4945 -19.4600 -19.4584 -19.4327 -19.4322
   -19.0198 -19.0168 -18.3597 -18.3575 -18.3383 -18.3323 -17.8191 -17.8183
   -12.1021 -12.0993 -12.0869 -12.0825 -11.9032 -11.9021 -11.3567 -11.3544
   -10.2619 -10.2613 -10.1622 -10.1615 -10.1543 -10.1537  -8.6019  -8.5925
    -8.5770  -8.5751  -8.5703  -8.5664  -7.8914  -7.8908  -7.8873  -7.8870
    -7.8482  -7.8475  -7.7984  -7.7964  -7.5169  -7.5138  -6.6372  -6.6365
    -6.3912  -6.3854  -6.3165  -6.3145  -6.2171  -6.2149  -5.7340  -5.7310
    -5.5727  -5.5699  -4.7607  -4.7555  -4.7213  -4.7117  -3.9067  -3.9048
    -2.0576  -1.9101  -1.4036  -1.3894  -1.3888  -1.3840  -1.3808  -1.3748
    -1.3666  -1.3641  -1.2985  -1.2904   0.9525   0.9851   1.1317   1.1783
     1.3599   1.3696   1.4397   1.4880   1.6259   1.6314

          k =-1.0000 0.0000 0.0000 ( 59292 PWs)   bands (ev):

   -72.4653 -72.4650 -43.9302 -43.9299 -43.9267 -43.9263 -43.9189 -43.9185
   -21.1051 -21.0447 -20.5125 -20.4826 -19.4779 -19.4358 -19.4316 -19.4298
   -19.0450 -18.9955 -18.4088 -18.3531 -18.3210 -18.3046 -17.8324 -17.8075
   -12.1376 -12.1002 -12.0713 -12.0569 -11.9148 -11.8918 -11.3785 -11.3347
   -10.2806 -10.2593 -10.1639 -10.1587 -10.1493 -10.1449  -8.6630  -8.6070
    -8.5818  -8.5534  -8.5425  -8.5171  -7.9117  -7.9027  -7.8858  -7.8763
    -7.8620  -7.8375  -7.8322  -7.7602  -7.5429  -7.4906  -6.6452  -6.6264
    -6.4296  -6.3360  -6.3110  -6.3034  -6.2381  -6.1979  -5.7728  -5.7073
    -5.5953  -5.5471  -4.8593  -4.7323  -4.6956  -4.6634  -3.9376  -3.8772
    -2.2898  -1.5889  -1.4189  -1.4139  -1.4004  -1.3902  -1.3811  -1.3530
    -1.3345  -1.3023  -1.2907  -1.2325   0.4475   0.5753   1.0185   1.1077
     1.1575   1.4176   1.5437   1.5999   1.6102   1.8469

 ------ SPIN DOWN ----------


          k = 0.1667 0.2887 0.0000 ( 59267 PWs)   bands (ev):

   -68.0940 -68.0935 -39.5975 -39.5971 -39.5866 -39.5862 -39.5837 -39.5834
   -21.2678 -20.6814 -20.6774 -20.1325 -20.1104 -19.6079 -19.6047 -19.1203
   -18.7174 -18.7125 -18.4851 -18.4647 -18.2141 -18.1059 -18.0998 -17.8700
   -12.5068 -12.2336 -12.2191 -11.8438 -11.8407 -11.6815 -11.2141 -11.2115
   -10.4148 -10.3895 -10.1395 -10.1377  -9.6115  -9.6106  -8.8531  -8.8406
    -8.8373  -8.7885  -8.7851  -8.6188  -8.2201  -8.0443  -8.0338  -7.8542
    -7.8479  -7.4599  -7.4591  -7.3007  -7.2504  -7.2310  -7.2295  -6.9894
    -6.9722  -6.5627  -6.5558  -6.1763  -6.1757  -5.8773  -5.4408  -5.2943
    -5.2845  -5.2227  -4.9340  -4.8962  -4.5104  -4.3638  -4.3536  -3.9872
    -0.2272   0.6503   1.0461   1.1832   1.3094   1.4191   1.4518   1.5226
     1.5490   1.8206   1.8551   2.1188   2.2164   2.2569   2.2778   2.3860
     2.4192   2.5323   2.5420   2.5859   2.5905   2.6465

          k = 0.1667-0.4811 0.0000 ( 59291 PWs)   bands (ev):

   -68.0940 -68.0935 -39.5975 -39.5971 -39.5866 -39.5862 -39.5837 -39.5834
   -21.1373 -20.9335 -20.7441 -20.1819 -19.8254 -19.4878 -19.3373 -19.1960
   -19.0348 -18.8010 -18.6602 -18.5652 -18.1676 -18.1115 -17.9431 -17.7441
   -12.3708 -12.1359 -12.0676 -11.9291 -11.7035 -11.6811 -11.5751 -10.9642
   -10.9125 -10.6457 -10.5457  -9.8822  -9.7158  -9.3582  -9.1337  -8.6650
    -8.6454  -8.5752  -8.4119  -8.3773  -8.1844  -8.1287  -8.0857  -8.0732
    -7.7111  -7.6461  -7.5168  -7.4970  -7.3604  -7.1928  -7.0906  -6.8663
    -6.6441  -6.3964  -6.1829  -6.1788  -5.9805  -5.9512  -5.8061  -5.7506
    -5.4740  -5.4084  -5.2066  -5.0539  -4.4450  -4.3633  -4.0987  -3.7753
    -0.1855   0.6177   0.9977   1.1013   1.1458   1.2554   1.3616   1.7567
     1.8260   1.8654   2.0245   2.1243   2.2527   2.2914   2.3025   2.3525
     2.4419   2.4626   2.5052   2.5138   2.5590   2.6387

          k = 0.1667-0.0962 0.0000 ( 59226 PWs)   bands (ev):

   -68.0940 -68.0935 -39.5975 -39.5971 -39.5866 -39.5862 -39.5837 -39.5834
   -21.3343 -20.5567 -20.3650 -20.3624 -20.0072 -20.0032 -19.8270 -18.7475
   -18.7454 -18.4007 -18.3812 -18.3795 -18.2948 -18.2754 -18.0965 -18.0939
   -12.5342 -12.5210 -12.4301 -11.6029 -11.6006 -11.4554 -11.4366 -10.9476
   -10.9470  -9.9506  -9.9503  -9.6982  -9.4012  -9.3909  -9.2522  -9.2506
    -9.0645  -9.0628  -8.9260  -8.3447  -8.3443  -7.9260  -7.9198  -7.8817
    -7.8659  -7.7932  -7.6089  -7.6015  -7.1211  -7.1111  -6.9823  -6.9103
    -6.9091  -6.8626  -6.5525  -6.5521  -6.2802  -5.3406  -5.3358  -5.1656
    -5.0879  -4.8222  -4.7919  -4.7669  -4.6327  -4.6021  -4.3535  -4.3491
    -0.2652   0.6849   1.0322   1.1203   1.2479   1.4629   1.4830   1.5542
     1.7675   1.8979   1.9977   2.0207   2.0747   2.1565   2.2895   2.3934
     2.4304   2.4939   2.5220   2.5573   2.6256   2.6401

          k =-0.5000-0.8660 0.0000 ( 59292 PWs)   bands (ev):

   -68.0940 -68.0935 -39.5975 -39.5971 -39.5866 -39.5862 -39.5837 -39.5834
   -21.0708 -21.0675 -20.4883 -20.4878 -19.4504 -19.4490 -19.4271 -19.4267
   -19.0126 -19.0103 -18.3506 -18.3487 -18.3320 -18.3270 -17.8119 -17.8113
   -12.0960 -12.0934 -12.0827 -12.0787 -11.8991 -11.8980 -11.3517 -11.3496
   -10.2566 -10.2561 -10.1565 -10.1558 -10.1498 -10.1492  -8.5740  -8.5721
    -8.5694  -8.5671  -8.5643  -8.5622  -7.8862  -7.8857  -7.8828  -7.8824
    -7.8429  -7.8422  -7.7766  -7.7750  -7.5124  -7.5096  -6.6323  -6.6317
    -6.3538  -6.3500  -6.3032  -6.3018  -6.2119  -6.2100  -5.7136  -5.7112
    -5.5676  -5.5651  -4.7343  -4.7302  -4.7037  -4.6966  -3.8872  -3.8859
     0.0367   0.1618   1.0313   1.0367   1.4139   1.4232   1.5191   1.5396
     1.7775   1.7797   2.0625   2.0718   2.1986   2.2187   2.4038   2.4108
     2.4594   2.4621   2.5377   2.5402   2.5764   2.6084

          k =-0.1667 0.2887 0.0000 ( 59267 PWs)   bands (ev):

   -68.0940 -68.0935 -39.5975 -39.5971 -39.5866 -39.5862 -39.5837 -39.5834
   -21.2678 -20.6814 -20.6774 -20.1325 -20.1104 -19.6079 -19.6046 -19.1203
   -18.7174 -18.7125 -18.4851 -18.4647 -18.2141 -18.1059 -18.0998 -17.8700
   -12.5068 -12.2336 -12.2192 -11.8438 -11.8407 -11.6815 -11.2141 -11.2115
   -10.4148 -10.3895 -10.1395 -10.1377  -9.6115  -9.6106  -8.8530  -8.8406
    -8.8373  -8.7885  -8.7851  -8.6187  -8.2201  -8.0443  -8.0338  -7.8542
    -7.8479  -7.4599  -7.4591  -7.3007  -7.2504  -7.2309  -7.2294  -6.9894
    -6.9722  -6.5627  -6.5558  -6.1763  -6.1756  -5.8773  -5.4409  -5.2943
    -5.2845  -5.2226  -4.9340  -4.8962  -4.5104  -4.3638  -4.3535  -3.9872
    -0.2272   0.6503   1.0461   1.1832   1.3094   1.4191   1.4518   1.5226
     1.5489   1.8206   1.8551   2.1188   2.2166   2.2568   2.2777   2.3860
     2.4192   2.5324   2.5420   2.5859   2.5904   2.6464

          k = 0.3333 0.0000 0.0000 ( 59267 PWs)   bands (ev):

   -68.0940 -68.0935 -39.5975 -39.5971 -39.5866 -39.5862 -39.5837 -39.5834
   -21.2675 -20.7056 -20.6530 -20.1306 -20.1112 -19.6326 -19.5815 -19.1220
   -18.7333 -18.6923 -18.4855 -18.4662 -18.2104 -18.1265 -18.0844 -17.8694
   -12.5064 -12.2322 -12.2205 -11.8522 -11.8344 -11.6797 -11.2316 -11.1945
   -10.4132 -10.3900 -10.1518 -10.1258  -9.6175  -9.6036  -8.8548  -8.8436
    -8.8310  -8.8099  -8.7648  -8.6195  -8.2216  -8.0924  -7.9852  -7.8524
    -7.8476  -7.4656  -7.4537  -7.2939  -7.2545  -7.2404  -7.2197  -6.9889
    -6.9738  -6.6102  -6.5125  -6.1793  -6.1719  -5.8810  -5.4405  -5.3102
    -5.2616  -5.2232  -4.9361  -4.8967  -4.5044  -4.3881  -4.3364  -3.9872
    -0.1497   0.4127   1.0329   1.1943   1.3473   1.4528   1.4611   1.5191
     1.5844   1.8150   2.1045   2.1558   2.2089   2.2517   2.2746   2.4081
     2.4503   2.4969   2.5242   2.5646   2.5713   2.6645

          k =-0.1667-0.4811 0.0000 ( 59291 PWs)   bands (ev):

   -68.0940 -68.0935 -39.5975 -39.5971 -39.5866 -39.5862 -39.5837 -39.5834
   -21.1373 -20.9335 -20.7441 -20.1819 -19.8254 -19.4878 -19.3373 -19.1960
   -19.0348 -18.8010 -18.6602 -18.5652 -18.1676 -18.1115 -17.9431 -17.7441
   -12.3708 -12.1359 -12.0676 -11.9290 -11.7035 -11.6811 -11.5751 -10.9642
   -10.9125 -10.6457 -10.5457  -9.8822  -9.7158  -9.3583  -9.1337  -8.6650
    -8.6453  -8.5752  -8.4119  -8.3773  -8.1843  -8.1287  -8.0857  -8.0732
    -7.7111  -7.6462  -7.5168  -7.4970  -7.3604  -7.1927  -7.0905  -6.8663
    -6.6441  -6.3964  -6.1829  -6.1788  -5.9805  -5.9512  -5.8061  -5.7506
    -5.4740  -5.4084  -5.2066  -5.0540  -4.4450  -4.3633  -4.0987  -3.7753
    -0.1855   0.6177   0.9977   1.1012   1.1458   1.2555   1.3616   1.7567
     1.8261   1.8654   2.0245   2.1243   2.2527   2.2914   2.3025   2.3526
     2.4419   2.4626   2.5052   2.5138   2.5590   2.6396

          k = 0.5000-0.0962 0.0000 ( 59291 PWs)   bands (ev):

   -68.0940 -68.0935 -39.5975 -39.5971 -39.5866 -39.5862 -39.5837 -39.5834
   -21.1348 -20.9405 -20.7395 -20.1804 -19.8256 -19.4886 -19.3437 -19.1914
   -19.0356 -18.8007 -18.6520 -18.5710 -18.1572 -18.1259 -17.9400 -17.7440
   -12.3697 -12.1364 -12.0655 -11.9329 -11.7151 -11.6673 -11.5773 -10.9650
   -10.9100 -10.6441 -10.5479  -9.8802  -9.7165  -9.3592  -9.1331  -8.6575
    -8.6461  -8.5737  -8.4157  -8.3986  -8.1822  -8.1146  -8.0986  -8.0614
    -7.7076  -7.6469  -7.5157  -7.4986  -7.3567  -7.1941  -7.0910  -6.8672
    -6.6444  -6.3982  -6.1970  -6.1798  -5.9695  -5.9506  -5.8055  -5.7521
    -5.4753  -5.4056  -5.1923  -5.0647  -4.4276  -4.3855  -4.0945  -3.7759
     0.0277   0.1748   0.9922   1.1031   1.1440   1.2779   1.6214   1.7336
     1.7920   2.0308   2.0414   2.1428   2.2194   2.2797   2.3149   2.3715
     2.4502   2.4848   2.5363   2.5451   2.6087   2.6297

          k =-0.3333-0.3849 0.0000 ( 59291 PWs)   bands (ev):

   -68.0940 -68.0935 -39.5975 -39.5971 -39.5866 -39.5862 -39.5837 -39.5834
   -21.1356 -20.9381 -20.7412 -20.1803 -19.8270 -19.4874 -19.3392 -19.1938
   -19.0386 -18.7990 -18.6532 -18.5703 -18.1591 -18.1236 -17.9401 -17.7442
   -12.3704 -12.1345 -12.0679 -11.9316 -11.7047 -11.6791 -11.5763 -10.9645
   -10.9102 -10.6435 -10.5486  -9.8808  -9.7166  -9.3589  -9.1336  -8.6601
    -8.6446  -8.5752  -8.4134  -8.3910  -8.1841  -8.1195  -8.0854  -8.0753
    -7.7082  -7.6449  -7.5228  -7.4923  -7.3566  -7.1943  -7.0916  -6.8704
    -6.6424  -6.3953  -6.1861  -6.1819  -5.9757  -5.9497  -5.8058  -5.7596
    -5.4750  -5.4022  -5.1928  -5.0645  -4.4298  -4.3835  -4.0943  -3.7759
    -0.0854   0.3495   1.0035   1.0669   1.1773   1.2708   1.4961   1.7660
     1.9287   1.9423   2.0471   2.0604   2.2089   2.2821   2.3066   2.4091
     2.4301   2.4536   2.5388   2.5500   2.5795   2.6432

          k = 0.5000 0.0962 0.0000 ( 59291 PWs)   bands (ev):

   -68.0940 -68.0935 -39.5975 -39.5971 -39.5866 -39.5862 -39.5837 -39.5834
   -21.1348 -20.9405 -20.7395 -20.1804 -19.8256 -19.4886 -19.3437 -19.1914
   -19.0356 -18.8007 -18.6520 -18.5710 -18.1572 -18.1259 -17.9400 -17.7440
   -12.3697 -12.1365 -12.0655 -11.9329 -11.7150 -11.6673 -11.5773 -10.9649
   -10.9100 -10.6441 -10.5479  -9.8802  -9.7165  -9.3592  -9.1331  -8.6575
    -8.6461  -8.5737  -8.4157  -8.3986  -8.1822  -8.1146  -8.0985  -8.0613
    -7.7076  -7.6469  -7.5157  -7.4986  -7.3567  -7.1942  -7.0910  -6.8672
    -6.6443  -6.3982  -6.1970  -6.1797  -5.9695  -5.9506  -5.8056  -5.7521
    -5.4754  -5.4056  -5.1923  -5.0647  -4.4276  -4.3855  -4.0945  -3.7759
     0.0277   0.1748   0.9922   1.1031   1.1440   1.2779   1.6214   1.7335
     1.7920   2.0308   2.0414   2.1428   2.2193   2.2797   2.3149   2.3715
     2.4501   2.4848   2.5366   2.5449   2.6086   2.6300

          k =-0.3333 0.3849 0.0000 ( 59291 PWs)   bands (ev):

   -68.0940 -68.0935 -39.5975 -39.5971 -39.5866 -39.5862 -39.5837 -39.5834
   -21.1356 -20.9381 -20.7412 -20.1803 -19.8270 -19.4874 -19.3393 -19.1938
   -19.0386 -18.7990 -18.6532 -18.5703 -18.1591 -18.1236 -17.9401 -17.7442
   -12.3703 -12.1345 -12.0679 -11.9316 -11.7047 -11.6791 -11.5762 -10.9645
   -10.9101 -10.6435 -10.5486  -9.8809  -9.7165  -9.3589  -9.1336  -8.6601
    -8.6446  -8.5751  -8.4134  -8.3910  -8.1841  -8.1195  -8.0854  -8.0753
    -7.7082  -7.6449  -7.5228  -7.4922  -7.3566  -7.1942  -7.0916  -6.8704
    -6.6424  -6.3953  -6.1861  -6.1820  -5.9757  -5.9498  -5.8057  -5.7596
    -5.4749  -5.4022  -5.1928  -5.0645  -4.4298  -4.3835  -4.0942  -3.7759
    -0.0854   0.3495   1.0035   1.0669   1.1773   1.2708   1.4961   1.7660
     1.9287   1.9423   2.0471   2.0604   2.2090   2.2820   2.3066   2.4090
     2.4300   2.4535   2.5389   2.5500   2.5802   2.6432

          k =-0.1667-0.0962 0.0000 ( 59226 PWs)   bands (ev):

   -68.0940 -68.0935 -39.5975 -39.5971 -39.5866 -39.5862 -39.5837 -39.5834
   -21.3343 -20.5567 -20.3650 -20.3624 -20.0072 -20.0032 -19.8270 -18.7475
   -18.7454 -18.4007 -18.3812 -18.3795 -18.2948 -18.2754 -18.0965 -18.0939
   -12.5342 -12.5210 -12.4300 -11.6028 -11.6006 -11.4554 -11.4366 -10.9476
   -10.9470  -9.9506  -9.9503  -9.6981  -9.4012  -9.3908  -9.2522  -9.2506
    -9.0645  -9.0628  -8.9260  -8.3447  -8.3444  -7.9260  -7.9197  -7.8817
    -7.8658  -7.7933  -7.6089  -7.6015  -7.1211  -7.1111  -6.9823  -6.9103
    -6.9090  -6.8626  -6.5525  -6.5521  -6.2803  -5.3406  -5.3358  -5.1655
    -5.0880  -4.8222  -4.7919  -4.7669  -4.6327  -4.6020  -4.3535  -4.3491
    -0.2652   0.6849   1.0322   1.1203   1.2479   1.4629   1.4831   1.5542
     1.7675   1.8979   1.9977   2.0207   2.0747   2.1564   2.2896   2.3935
     2.4305   2.4940   2.5219   2.5573   2.6253   2.6403

          k =-0.0000-0.1925 0.0000 ( 59226 PWs)   bands (ev):

   -68.0940 -68.0935 -39.5975 -39.5971 -39.5866 -39.5862 -39.5837 -39.5834
   -21.3344 -20.5518 -20.3812 -20.3541 -20.0123 -19.9913 -19.8306 -18.7562
   -18.7329 -18.4240 -18.3838 -18.3699 -18.2777 -18.2751 -18.1081 -18.0872
   -12.5329 -12.5229 -12.4294 -11.6107 -11.5940 -11.4515 -11.4378 -10.9516
   -10.9448  -9.9550  -9.9456  -9.6986  -9.4015  -9.3895  -9.2534  -9.2499
    -9.0639  -9.0638  -8.9264  -8.3474  -8.3405  -7.9272  -7.9197  -7.8711
    -7.8597  -7.7947  -7.6519  -7.5814  -7.1316  -7.0825  -6.9807  -6.9153
    -6.9057  -6.8725  -6.5574  -6.5467  -6.2807  -5.3603  -5.3080  -5.1660
    -5.0875  -4.8607  -4.7910  -4.7531  -4.6119  -4.5992  -4.3781  -4.3323
    -0.2906   0.8269   1.0673   1.0755   1.2621   1.4346   1.4455   1.5532
     1.7326   1.8585   1.9245   1.9300   2.0290   2.2377   2.3088   2.3599
     2.3800   2.5297   2.5490   2.6070   2.6413   2.6689

          k = 0.5000-0.8660 0.0000 ( 59292 PWs)   bands (ev):

   -68.0940 -68.0935 -39.5975 -39.5971 -39.5866 -39.5862 -39.5837 -39.5834
   -21.0708 -21.0675 -20.4883 -20.4878 -19.4504 -19.4490 -19.4271 -19.4267
   -19.0127 -19.0103 -18.3506 -18.3487 -18.3320 -18.3270 -17.8119 -17.8113
   -12.0960 -12.0934 -12.0828 -12.0787 -11.8990 -11.8979 -11.3517 -11.3495
   -10.2566 -10.2561 -10.1565 -10.1558 -10.1498 -10.1492  -8.5740  -8.5721
    -8.5694  -8.5672  -8.5643  -8.5621  -7.8861  -7.8856  -7.8828  -7.8825
    -7.8429  -7.8423  -7.7766  -7.7750  -7.5125  -7.5097  -6.6322  -6.6316
    -6.3538  -6.3500  -6.3032  -6.3018  -6.2119  -6.2099  -5.7136  -5.7112
    -5.5677  -5.5652  -4.7343  -4.7302  -4.7037  -4.6966  -3.8873  -3.8859
     0.0367   0.1619   1.0313   1.0367   1.4139   1.4231   1.5191   1.5396
     1.7775   1.7797   2.0625   2.0716   2.1987   2.2187   2.4038   2.4109
     2.4594   2.4623   2.5374   2.5405   2.5763   2.6088

          k =-1.0000 0.0000 0.0000 ( 59292 PWs)   bands (ev):

   -68.0940 -68.0935 -39.5975 -39.5971 -39.5866 -39.5862 -39.5837 -39.5834
   -21.0942 -21.0416 -20.5029 -20.4773 -19.4666 -19.4296 -19.4264 -19.4245
   -19.0337 -18.9921 -18.3929 -18.3433 -18.3180 -18.3038 -17.8232 -17.8018
   -12.1288 -12.0941 -12.0689 -12.0553 -11.9092 -11.8888 -11.3715 -11.3315
   -10.2726 -10.2537 -10.1581 -10.1544 -10.1451 -10.1416  -8.6206  -8.5988
    -8.5756  -8.5511  -8.5407  -8.5111  -7.9036  -7.8964  -7.8806  -7.8730
    -7.8365  -7.8346  -7.8118  -7.7494  -7.5357  -7.4886  -6.6391  -6.6230
    -6.3841  -6.3162  -6.3000  -6.2933  -6.2305  -6.1943  -5.7410  -5.6913
    -5.5876  -5.5451  -4.8074  -4.7102  -4.6867  -4.6617  -3.9092  -3.8659
    -0.2190   0.7703   1.0079   1.0997   1.2374   1.3618   1.4250   1.6030
     1.6032   1.6517   1.8773   2.1495   2.2046   2.3095   2.3157   2.3699
     2.4459   2.4913   2.5302   2.5671   2.6289   2.6422

     the Fermi energy is    -0.8530 ev

!    total energy              =   -1133.81162693 Ry

     total all-electron energy =     -6753.487330 Ry
     estimated scf accuracy    <       0.00000002 Ry
     smearing contrib. (-TS)   =      -0.00000000 Ry
     internal energy E=F+TS    =   -1133.81162693 Ry

     The total energy is F=E-TS. E is the sum of the following terms:
     one-electron contribution =   -3914.20809078 Ry
     hartree contribution      =    1985.68199157 Ry
     xc contribution           =    -186.20060115 Ry
     ewald contribution        =    1340.28181113 Ry
     DFT-D3 Dispersion         =      -0.13879406 Ry
     one-center paw contrib.   =    -359.22794364 Ry

     total magnetization       =    12.00 Bohr mag/cell
     absolute magnetization    =    12.00 Bohr mag/cell

     convergence has been achieved in  12 iterations

     Writing output data file ./mytmp/Crdimer0.26-0.4.save/
 
     init_run     :     18.72s CPU     19.72s WALL (       1 calls)
     electrons    :    469.90s CPU    508.31s WALL (       1 calls)

     Called by init_run:
     wfcinit      :     13.59s CPU     14.06s WALL (       1 calls)
     potinit      :      1.53s CPU      1.59s WALL (       1 calls)
     hinit0       :      1.52s CPU      1.62s WALL (       1 calls)

     Called by electrons:
     c_bands      :    371.78s CPU    394.33s WALL (      12 calls)
     sum_band     :     69.47s CPU     78.94s WALL (      12 calls)
     v_of_rho     :      6.25s CPU      6.94s WALL (      13 calls)
     newd         :     15.91s CPU     21.74s WALL (      13 calls)
     PAW_pot      :      6.39s CPU      6.45s WALL (      13 calls)
     mix_rho      :      0.82s CPU      0.85s WALL (      12 calls)

     Called by c_bands:
     init_us_2    :      4.34s CPU      4.37s WALL (     750 calls)
     cegterg      :    361.18s CPU    383.65s WALL (     360 calls)

     Called by *egterg:
     cdiaghg      :     23.20s CPU     36.12s WALL (    2445 calls)
     h_psi        :    223.14s CPU    231.49s WALL (    2475 calls)
     s_psi        :     24.54s CPU     24.61s WALL (    2475 calls)
     g_psi        :      0.68s CPU      0.69s WALL (    2085 calls)

     Called by h_psi:
     h_psi:calbec :     26.42s CPU     26.94s WALL (    2475 calls)
     vloc_psi     :    169.68s CPU    177.36s WALL (    2475 calls)
     add_vuspsi   :     25.10s CPU     25.22s WALL (    2475 calls)

     General routines
     calbec       :     34.65s CPU     35.33s WALL (    2835 calls)
     fft          :      8.23s CPU     11.85s WALL (     319 calls)
     ffts         :      0.10s CPU      0.10s WALL (      50 calls)
     fftw         :    172.35s CPU    180.11s WALL (  226412 calls)
     interpolate  :      0.36s CPU      0.38s WALL (      26 calls)
 
     Parallel routines
     fft_scatt_xy :     27.16s CPU     28.18s WALL (  226781 calls)
     fft_scatt_yz :     71.70s CPU     78.90s WALL (  226781 calls)
 
     PWSCF        :   8m10.56s CPU   8m52.66s WALL

 
   This run was terminated on:  23:17:20  29Mar2021            

=------------------------------------------------------------------------------=
   JOB DONE.
=------------------------------------------------------------------------------=
