
     Program PWSCF v.6.7MaX starts on 29Mar2021 at 21:12:15 

     This program is part of the open-source Quantum ESPRESSO suite
     for quantum simulation of materials; please cite
         "P. Giannozzi et al., J. Phys.:Condens. Matter 21 395502 (2009);
         "P. Giannozzi et al., J. Phys.:Condens. Matter 29 465901 (2017);
          URL http://www.quantum-espresso.org", 
     in publications or presentations arising from this work. More details at
     http://www.quantum-espresso.org/quote

     Parallel version (MPI), running on    48 processors

     MPI processes distributed on     1 nodes
     R & G space division:  proc/nbgrp/npool/nimage =      48
     Reading input from Crdimer0.22-0.2.scf.in

     Current dimensions of program PWSCF are:
     Max number of different atomic species (ntypx) = 10
     Max number of k-points (npk) =  40000
     Max angular momentum in pseudopotentials (lmaxx) =  3
     file N.pbe-n-kjpaw_psl.1.0.0.UPF: wavefunction(s)  2S renormalized
     file Cr.pbe-spn-kjpaw_psl.1.0.0.UPF: wavefunction(s)  3S 3P 3D renormalized
     file Cr.pbe-spn-kjpaw_psl.1.0.0.UPF: wavefunction(s)  3S 3P 3D renormalized

     --------------------------------------------
     Parameters for DFT-D3 Dispersion Correction:
     --------------------------------------------
       Reference C6 values for interpolation: 

         atom   Coordination number   C6
         B          0.000           214.36
         B          0.971           150.74
         B          1.944           106.23
         B          2.913            62.89
         B          4.586            56.06
         N          0.000            50.54
         N          0.994            44.25
         N          2.014            39.35
         N          2.990            31.16
         Cr1        0.000          1381.48
         Cr1        1.827           571.38
         Cr1       10.619           306.69
         Cr2        0.000          1381.48
         Cr2        1.827           571.38
         Cr2       10.619           306.69

       Values used:

         atom   Coordination number  R0_AB[au]  C6      C8
         B          3.347            3.039     62.88   2505.72
         B          3.335            3.039     62.89   2506.01
         B          3.338            3.039     62.89   2505.93
         B          3.336            3.039     62.89   2505.98
         B          3.360            3.039     62.87   2505.34
         B          3.335            3.039     62.89   2506.00
         N          3.135            2.478     31.22    688.68
         N          3.134            2.478     31.22    688.69
         N          3.145            2.478     31.21    688.60
         N          3.139            2.478     31.22    688.65
         N          3.138            2.478     31.22    688.66
         N          3.134            2.478     31.22    688.70
         N          3.148            2.478     31.21    688.57
         N          3.134            2.478     31.22    688.70
         N          3.134            2.478     31.22    688.69
         B          3.337            3.039     62.89   2505.96
         B          3.335            3.039     62.89   2506.01
         B          3.335            3.039     62.89   2506.00
         B          3.360            3.039     62.87   2505.34
         B          3.347            3.039     62.88   2505.72
         B          3.337            3.039     62.89   2505.96
         N          3.148            2.478     31.21    688.57
         B          3.336            3.039     62.89   2506.00
         B          3.336            3.039     62.89   2505.98
         B          3.344            3.039     62.89   2505.79
         N          3.134            2.478     31.22    688.70
         N          3.134            2.478     31.22    688.69
         N          3.135            2.478     31.22    688.69
         N          3.135            2.478     31.22    688.69
         N          3.145            2.478     31.21    688.60
         N          3.139            2.478     31.22    688.65
         B          3.344            3.039     62.89   2505.79
         Cr1        0.097            3.252   1381.48 127494.81
         Cr2        0.097            3.252   1381.48 127494.81

         Molecular C6 ( Ry / a.u.^6 ) =     79164.92


     Subspace diagonalization in iterative solution of the eigenvalue problem:
     one sub-group per band group will be used
     scalapack distributed-memory algorithm (size of sub-group:  6*  6 procs)

 
     Parallelization info
     --------------------
     sticks:   dense  smooth     PW     G-vecs:    dense   smooth      PW
     Min         235      98     26                36277     9874    1408
     Max         236      99     27                36282     9883    1425
     Sum       11311    4741   1285              1741401   474235   68095
 


     bravais-lattice index     =            4
     lattice parameter (alat)  =      18.9275  a.u.
     unit-cell volume          =   10553.3021 (a.u.)^3
     number of atoms/cell      =           34
     number of atomic types    =            4
     number of electrons       =       156.00
     number of Kohn-Sham states=           94
     kinetic-energy cutoff     =      48.0000  Ry
     charge density cutoff     =     457.0000  Ry
     scf convergence threshold =      1.0E-07
     mixing beta               =       0.5000
     number of iterations used =            8  plain     mixing
     Exchange-correlation= SLA  PW   PBX  PBC
                           (   1   4   3   4   0   0   0)

     celldm(1)=  18.927497  celldm(2)=   0.000000  celldm(3)=   1.797125
     celldm(4)=   0.000000  celldm(5)=   0.000000  celldm(6)=   0.000000

     crystal axes: (cart. coord. in units of alat)
               a(1) = (   1.000000   0.000000   0.000000 )  
               a(2) = (  -0.500000   0.866025   0.000000 )  
               a(3) = (   0.000000   0.000000   1.797125 )  

     reciprocal axes: (cart. coord. in units 2 pi/alat)
               b(1) = (  1.000000  0.577350  0.000000 )  
               b(2) = (  0.000000  1.154701  0.000000 )  
               b(3) = (  0.000000  0.000000  0.556444 )  


     PseudoPot. # 1 for B  read from file:
     /home/sf05/q-e-qe-6.7MaX-Release/pseudo/B.pbe-n-kjpaw_psl.1.0.0.UPF
     MD5 check sum: d9c678ba5d3b2fd7b74e61139c9288d8
     Pseudo is Projector augmented-wave + core cor, Zval =  3.0
     Generated using "atomic" code by A. Dal Corso  v.5.1.2
     Shape of augmentation charge: PSQ
     Using radial grid of 1059 points,  4 beta functions with: 
                l(1) =   0
                l(2) =   0
                l(3) =   1
                l(4) =   1
     Q(r) pseudized with 0 coefficients 


     PseudoPot. # 2 for N  read from file:
     /home/sf05/q-e-qe-6.7MaX-Release/pseudo/N.pbe-n-kjpaw_psl.1.0.0.UPF
     MD5 check sum: e0e4e94a9c4025c5b51bd7d8793849bd
     Pseudo is Projector augmented-wave + core cor, Zval =  5.0
     Generated using "atomic" code by A. Dal Corso  v.5.1.2
     Shape of augmentation charge: PSQ
     Using radial grid of 1085 points,  4 beta functions with: 
                l(1) =   0
                l(2) =   0
                l(3) =   1
                l(4) =   1
     Q(r) pseudized with 0 coefficients 


     PseudoPot. # 3 for Cr read from file:
     /home/sf05/q-e-qe-6.7MaX-Release/pseudo/Cr.pbe-spn-kjpaw_psl.1.0.0.UPF
     MD5 check sum: 198f1a2427a48552563eee314eba32ba
     Pseudo is Projector augmented-wave + core cor, Zval = 14.0
     Generated using &quot;atomic&quot; code by A. Dal Corso  v.6.3
     Shape of augmentation charge: PSQ
     Using radial grid of 1183 points,  6 beta functions with: 
                l(1) =   0
                l(2) =   0
                l(3) =   1
                l(4) =   1
                l(5) =   2
                l(6) =   2
     Q(r) pseudized with 0 coefficients 


     PseudoPot. # 4 for Cr read from file:
     /home/sf05/q-e-qe-6.7MaX-Release/pseudo/Cr.pbe-spn-kjpaw_psl.1.0.0.UPF
     MD5 check sum: 198f1a2427a48552563eee314eba32ba
     Pseudo is Projector augmented-wave + core cor, Zval = 14.0
     Generated using &quot;atomic&quot; code by A. Dal Corso  v.6.3
     Shape of augmentation charge: PSQ
     Using radial grid of 1183 points,  6 beta functions with: 
                l(1) =   0
                l(2) =   0
                l(3) =   1
                l(4) =   1
                l(5) =   2
                l(6) =   2
     Q(r) pseudized with 0 coefficients 


     atomic species   valence    mass     pseudopotential
        B              3.00    10.81100     B ( 1.00)
        N              5.00    14.00674     N ( 1.00)
        Cr1           14.00    51.99610     Cr( 1.00)
        Cr2           14.00    51.99610     Cr( 1.00)

     Starting magnetic structure 
     atomic species   magnetization
        B            0.000
        N            0.000
        Cr1          1.000
        Cr2          1.000

     No symmetry found



   Cartesian axes

     site n.     atom                  positions (alat units)
         1           B   tau(   1) = (  -0.1250000   0.2165064   0.8985623  )
         2           B   tau(   2) = (   0.3750000   0.6495191   0.8985623  )
         3           B   tau(   3) = (   0.2500000   0.0000000   0.8985623  )
         4           B   tau(   4) = (   0.7500000   0.0000000   0.8985623  )
         5           B   tau(   5) = (   0.1250000   0.2165064   0.8985623  )
         6           B   tau(   6) = (  -0.3750000   0.6495191   0.8985623  )
         7           N   tau(   7) = (   0.7500005   0.2886748   0.8985623  )
         8           N   tau(   8) = (   0.3750005   0.5051812   0.8985623  )
         9           N   tau(   9) = (   0.3750005   0.0721685   0.8985623  )
        10           N   tau(  10) = (   0.6250005   0.0721685   0.8985623  )
        11           N   tau(  11) = (   0.2500005   0.2886748   0.8985623  )
        12           N   tau(  12) = (   0.6250005   0.5051812   0.8985623  )
        13           N   tau(  13) = (   0.0000005   0.2886748   0.8985623  )
        14           N   tau(  14) = (   0.2500005   0.7216875   0.8985623  )
        15           N   tau(  15) = (  -0.2499995   0.7216875   0.8985623  )
        16           B   tau(  16) = (   0.0000000   0.4330127   0.8985623  )
        17           B   tau(  17) = (   0.1250000   0.6495191   0.8985623  )
        18           B   tau(  18) = (  -0.1250000   0.6495191   0.8985623  )
        19           B   tau(  19) = (   0.3750000   0.2165064   0.8985623  )
        20           B   tau(  20) = (   0.6250000   0.2165064   0.8985623  )
        21           B   tau(  21) = (   0.5000000   0.4330127   0.8985623  )
        22           N   tau(  22) = (   0.5000005   0.2886748   0.8985623  )
        23           B   tau(  23) = (  -0.2500000   0.4330127   0.8985623  )
        24           B   tau(  24) = (   0.2500000   0.4330127   0.8985623  )
        25           B   tau(  25) = (   0.5000000   0.0000000   0.8985623  )
        26           N   tau(  26) = (  -0.1249995   0.5051812   0.8985623  )
        27           N   tau(  27) = (   0.1250005   0.5051812   0.8985623  )
        28           N   tau(  28) = (   0.0000005   0.7216875   0.8985623  )
        29           N   tau(  29) = (   0.5000005   0.7216875   0.8985623  )
        30           N   tau(  30) = (   0.1250005   0.0721685   0.8985623  )
        31           N   tau(  31) = (   0.8750005   0.0721685   0.8985623  )
        32           B   tau(  32) = (   0.0000000   0.0000000   0.8985623  )
        33           Cr1 tau(  33) = (   0.4700000   0.1732051   1.2040735  )
        34           Cr2 tau(  34) = (   0.0300000   0.1732051   1.2040735  )

     number of k points=    15  Gaussian smearing, width (Ry)=  0.0000
                       cart. coord. in units 2pi/alat
        k(    1) = (   0.1666667   0.2886751   0.0000000), wk =   0.0740741
        k(    2) = (   0.1666667  -0.4811252   0.0000000), wk =   0.0740741
        k(    3) = (   0.1666667  -0.0962250   0.0000000), wk =   0.0740741
        k(    4) = (  -0.5000000  -0.8660254   0.0000000), wk =   0.0370370
        k(    5) = (  -0.1666667   0.2886751   0.0000000), wk =   0.0740741
        k(    6) = (   0.3333333   0.0000000   0.0000000), wk =   0.0740741
        k(    7) = (  -0.1666667  -0.4811252   0.0000000), wk =   0.0740741
        k(    8) = (   0.5000000  -0.0962250   0.0000000), wk =   0.0740741
        k(    9) = (  -0.3333333  -0.3849002   0.0000000), wk =   0.0740741
        k(   10) = (   0.5000000   0.0962250   0.0000000), wk =   0.0740741
        k(   11) = (  -0.3333333   0.3849002   0.0000000), wk =   0.0740741
        k(   12) = (  -0.1666667  -0.0962250   0.0000000), wk =   0.0740741
        k(   13) = (  -0.0000000  -0.1924501   0.0000000), wk =   0.0740741
        k(   14) = (   0.5000000  -0.8660254   0.0000000), wk =   0.0370370
        k(   15) = (  -1.0000000   0.0000000   0.0000000), wk =   0.0370370

     Dense  grid:  1741401 G-vectors     FFT dimensions: ( 135, 135, 240)

     Smooth grid:   474235 G-vectors     FFT dimensions: (  90,  90, 160)

     Estimated max dynamical RAM per process >     218.62 MB

     Estimated total dynamical RAM >      10.25 GB
     Generating pointlists ...
     new r_m :   0.0595 (alat units)  1.1269 (a.u.) for type    1
     new r_m :   0.0595 (alat units)  1.1269 (a.u.) for type    2
     new r_m :   0.1332 (alat units)  2.5207 (a.u.) for type    3
     new r_m :   0.1332 (alat units)  2.5207 (a.u.) for type    4

     Initial potential from superposition of free atoms

     starting charge  155.99382, renormalised to  156.00000

     negative rho (up, down):  6.529E-03 4.655E-04
     Starting wfcs are  148 randomized atomic wfcs
     Checking if some PAW data can be deallocated... 

     total cpu time spent up to now is       19.7 secs

     Self-consistent Calculation

     iteration #  1     ecut=    48.00 Ry     beta= 0.50
     Davidson diagonalization with overlap
     ethr =  1.00E-02,  avg # of iterations =  2.9

     negative rho (up, down):  4.717E-03 2.955E-03

     total cpu time spent up to now is       59.6 secs

     total energy              =   -1130.76847013 Ry
     estimated scf accuracy    <      11.37128658 Ry

     total magnetization       =    12.00 Bohr mag/cell
     absolute magnetization    =    12.16 Bohr mag/cell

     iteration #  2     ecut=    48.00 Ry     beta= 0.50
     Davidson diagonalization with overlap
     ethr =  7.29E-03,  avg # of iterations =  2.7

     negative rho (up, down):  7.065E-03 1.089E-02

     total cpu time spent up to now is       96.6 secs

     total energy              =   -1133.10416039 Ry
     estimated scf accuracy    <       3.15741380 Ry

     total magnetization       =    12.00 Bohr mag/cell
     absolute magnetization    =    12.00 Bohr mag/cell

     iteration #  3     ecut=    48.00 Ry     beta= 0.50
     Davidson diagonalization with overlap
     ethr =  2.02E-03,  avg # of iterations =  6.4

     negative rho (up, down):  3.430E-03 5.971E-03

     total cpu time spent up to now is      133.5 secs

     total energy              =   -1133.63517171 Ry
     estimated scf accuracy    <       0.62867406 Ry

     total magnetization       =    12.00 Bohr mag/cell
     absolute magnetization    =    12.05 Bohr mag/cell

     iteration #  4     ecut=    48.00 Ry     beta= 0.50
     Davidson diagonalization with overlap
     ethr =  4.03E-04,  avg # of iterations =  7.4

     negative rho (up, down):  6.893E-03 1.415E-02

     total cpu time spent up to now is      170.7 secs

     total energy              =   -1133.79558270 Ry
     estimated scf accuracy    <       0.26547552 Ry

     total magnetization       =    12.00 Bohr mag/cell
     absolute magnetization    =    12.00 Bohr mag/cell

     iteration #  5     ecut=    48.00 Ry     beta= 0.50
     Davidson diagonalization with overlap
     ethr =  1.70E-04,  avg # of iterations =  9.3

     negative rho (up, down):  4.513E-03 9.945E-03

     total cpu time spent up to now is      209.5 secs

     total energy              =   -1133.80931706 Ry
     estimated scf accuracy    <       0.01737635 Ry

     total magnetization       =    12.00 Bohr mag/cell
     absolute magnetization    =    12.00 Bohr mag/cell

     iteration #  6     ecut=    48.00 Ry     beta= 0.50
     Davidson diagonalization with overlap
     c_bands:  1 eigenvalues not converged
     c_bands:  1 eigenvalues not converged
     c_bands:  1 eigenvalues not converged
     c_bands:  1 eigenvalues not converged
     c_bands:  1 eigenvalues not converged
     c_bands:  1 eigenvalues not converged
     c_bands:  1 eigenvalues not converged
     c_bands:  1 eigenvalues not converged
     c_bands:  1 eigenvalues not converged
     c_bands:  1 eigenvalues not converged
     c_bands:  2 eigenvalues not converged
     c_bands:  3 eigenvalues not converged
     c_bands:  2 eigenvalues not converged
     c_bands:  2 eigenvalues not converged
     c_bands:  1 eigenvalues not converged
     ethr =  1.11E-05,  avg # of iterations = 15.0

     negative rho (up, down):  3.358E-03 7.815E-03

     total cpu time spent up to now is      267.7 secs

     total energy              =   -1133.81196216 Ry
     estimated scf accuracy    <       0.00394212 Ry

     total magnetization       =    12.00 Bohr mag/cell
     absolute magnetization    =    12.01 Bohr mag/cell

     iteration #  7     ecut=    48.00 Ry     beta= 0.50
     Davidson diagonalization with overlap
     c_bands:  1 eigenvalues not converged
     c_bands:  1 eigenvalues not converged
     ethr =  2.53E-06,  avg # of iterations = 11.8

     negative rho (up, down):  3.029E-03 7.540E-03

     total cpu time spent up to now is      313.2 secs

     total energy              =   -1133.81281712 Ry
     estimated scf accuracy    <       0.00037484 Ry

     total magnetization       =    12.00 Bohr mag/cell
     absolute magnetization    =    12.00 Bohr mag/cell

     iteration #  8     ecut=    48.00 Ry     beta= 0.50
     Davidson diagonalization with overlap
     ethr =  2.40E-07,  avg # of iterations =  3.8

     negative rho (up, down):  2.899E-03 7.353E-03

     total cpu time spent up to now is      347.8 secs

     total energy              =   -1133.81289435 Ry
     estimated scf accuracy    <       0.00006462 Ry

     total magnetization       =    12.00 Bohr mag/cell
     absolute magnetization    =    12.00 Bohr mag/cell

     iteration #  9     ecut=    48.00 Ry     beta= 0.50
     Davidson diagonalization with overlap
     ethr =  4.14E-08,  avg # of iterations =  2.0

     negative rho (up, down):  2.861E-03 7.322E-03

     total cpu time spent up to now is      383.3 secs

     total energy              =   -1133.81295143 Ry
     estimated scf accuracy    <       0.00000509 Ry

     total magnetization       =    12.00 Bohr mag/cell
     absolute magnetization    =    12.00 Bohr mag/cell

     iteration # 10     ecut=    48.00 Ry     beta= 0.50
     Davidson diagonalization with overlap
     ethr =  3.26E-09,  avg # of iterations =  4.5

     negative rho (up, down):  2.850E-03 7.320E-03

     total cpu time spent up to now is      421.7 secs

     total energy              =   -1133.81296909 Ry
     estimated scf accuracy    <       0.00000317 Ry

     total magnetization       =    12.00 Bohr mag/cell
     absolute magnetization    =    12.00 Bohr mag/cell

     iteration # 11     ecut=    48.00 Ry     beta= 0.50
     Davidson diagonalization with overlap
     ethr =  2.03E-09,  avg # of iterations =  2.0

     negative rho (up, down):  2.846E-03 7.322E-03

     total cpu time spent up to now is      457.7 secs

     total energy              =   -1133.81298076 Ry
     estimated scf accuracy    <       0.00000022 Ry

     total magnetization       =    12.00 Bohr mag/cell
     absolute magnetization    =    12.00 Bohr mag/cell

     iteration # 12     ecut=    48.00 Ry     beta= 0.50
     Davidson diagonalization with overlap
     ethr =  1.39E-10,  avg # of iterations =  3.8

     negative rho (up, down):  2.844E-03 7.326E-03
 
     Magnetic moment per site:
     atom:    1    charge:    0.8804    magn:    0.0002    constr:    0.0000
     atom:    2    charge:    0.8803    magn:    0.0001    constr:    0.0000
     atom:    3    charge:    0.8804    magn:    0.0014    constr:    0.0000
     atom:    4    charge:    0.8803    magn:    0.0009    constr:    0.0000
     atom:    5    charge:    0.8807    magn:    0.0003    constr:    0.0000
     atom:    6    charge:    0.8803    magn:    0.0001    constr:    0.0000
     atom:    7    charge:    2.8609    magn:    0.0022    constr:    0.0000
     atom:    8    charge:    2.8609    magn:    0.0005    constr:    0.0000
     atom:    9    charge:    2.8606    magn:    0.0080    constr:    0.0000
     atom:   10    charge:    2.8607    magn:    0.0050    constr:    0.0000
     atom:   11    charge:    2.8607    magn:    0.0056    constr:    0.0000
     atom:   12    charge:    2.8609    magn:    0.0003    constr:    0.0000
     atom:   13    charge:    2.8596    magn:    0.0086    constr:    0.0000
     atom:   14    charge:    2.8599    magn:    0.0003    constr:    0.0000
     atom:   15    charge:    2.8598    magn:    0.0005    constr:    0.0000
     atom:   16    charge:    0.8801    magn:    0.0008    constr:    0.0000
     atom:   17    charge:    0.8800    magn:    0.0001    constr:    0.0000
     atom:   18    charge:    0.8800    magn:    0.0001    constr:    0.0000
     atom:   19    charge:    0.8801    magn:    0.0003    constr:    0.0000
     atom:   20    charge:    0.8798    magn:    0.0002    constr:    0.0000
     atom:   21    charge:    0.8798    magn:    0.0008    constr:    0.0000
     atom:   22    charge:    2.8609    magn:    0.0086    constr:    0.0000
     atom:   23    charge:    0.8799    magn:    0.0002    constr:    0.0000
     atom:   24    charge:    0.8799    magn:    0.0002    constr:    0.0000
     atom:   25    charge:    0.8800    magn:    0.0002    constr:    0.0000
     atom:   26    charge:    2.8598    magn:    0.0003    constr:    0.0000
     atom:   27    charge:    2.8598    magn:    0.0005    constr:    0.0000
     atom:   28    charge:    2.8598    magn:    0.0009    constr:    0.0000
     atom:   29    charge:    2.8596    magn:    0.0009    constr:    0.0000
     atom:   30    charge:    2.8593    magn:    0.0080    constr:    0.0000
     atom:   31    charge:    2.8593    magn:    0.0050    constr:    0.0000
     atom:   32    charge:    0.8803    magn:    0.0002    constr:    0.0000
     atom:   33    charge:   12.8995    magn:    4.8841    constr:    0.0000
     atom:   34    charge:   12.8995    magn:    4.8841    constr:    0.0000

     total cpu time spent up to now is      491.1 secs

     End of self-consistent calculation

 ------ SPIN UP ------------


          k = 0.1667 0.2887 0.0000 ( 59267 PWs)   bands (ev):

   -72.4632 -72.4629 -43.9289 -43.9284 -43.9227 -43.9224 -43.9181 -43.9178
   -21.2709 -20.6876 -20.6769 -20.1334 -20.1155 -19.6146 -19.6039 -19.1236
   -18.7236 -18.7132 -18.4861 -18.4702 -18.2191 -18.1106 -18.1010 -17.8736
   -12.5076 -12.2334 -12.2221 -11.8456 -11.8407 -11.6820 -11.2178 -11.2104
   -10.4157 -10.3913 -10.1432 -10.1370  -9.6135  -9.6107  -8.8604  -8.8517
    -8.8437  -8.7925  -8.7830  -8.6200  -8.2208  -8.0719  -8.0444  -7.8542
    -7.8492  -7.4632  -7.4598  -7.3192  -7.2685  -7.2331  -7.2288  -6.9883
    -6.9750  -6.5885  -6.5636  -6.1779  -6.1761  -5.8957  -5.4424  -5.3180
    -5.2976  -5.2240  -4.9507  -4.9106  -4.5297  -4.3808  -4.3646  -4.0025
    -2.3443  -1.5936  -1.4336  -1.4249  -1.4081  -1.3657  -1.3566  -1.3433
    -1.3318  -1.3214  -1.3064  -1.2425   0.6097   0.7892   1.0168   1.1592
     1.2468   1.4351   1.4744   1.5469   1.5731   1.6242

          k = 0.1667-0.4811 0.0000 ( 59291 PWs)   bands (ev):

   -72.4632 -72.4629 -43.9289 -43.9284 -43.9227 -43.9224 -43.9181 -43.9178
   -21.1405 -20.9363 -20.7468 -20.1848 -19.8283 -19.4910 -19.3407 -19.1988
   -19.0385 -18.8035 -18.6643 -18.5684 -18.1731 -18.1136 -17.9463 -17.7479
   -12.3716 -12.1369 -12.0684 -11.9303 -11.7047 -11.6817 -11.5763 -10.9658
   -10.9137 -10.6471 -10.5471  -9.8839  -9.7168  -9.3599  -9.1346  -8.6903
    -8.6465  -8.5768  -8.4128  -8.3911  -8.1851  -8.1488  -8.0872  -8.0732
    -7.7118  -7.6470  -7.5180  -7.4975  -7.3799  -7.1946  -7.0915  -6.8837
    -6.6459  -6.4140  -6.1991  -6.1815  -5.9973  -5.9531  -5.8073  -5.7685
    -5.4752  -5.4246  -5.2300  -5.0654  -4.4671  -4.3723  -4.1139  -3.7900
    -2.3357  -1.6000  -1.4310  -1.4250  -1.4082  -1.3635  -1.3570  -1.3432
    -1.3335  -1.3224  -1.3061  -1.2429   0.5903   0.6479   1.0536   1.0867
     1.1883   1.2255   1.3719   1.7430   1.8125   1.9052

          k = 0.1667-0.0962 0.0000 ( 59226 PWs)   bands (ev):

   -72.4632 -72.4629 -43.9288 -43.9284 -43.9227 -43.9224 -43.9181 -43.9178
   -21.3373 -20.5598 -20.3683 -20.3644 -20.0118 -20.0051 -19.8297 -18.7526
   -18.7471 -18.4026 -18.3880 -18.3807 -18.2978 -18.2805 -18.1003 -18.0965
   -12.5342 -12.5228 -12.4317 -11.6043 -11.6007 -11.4548 -11.4394 -10.9494
   -10.9479  -9.9525  -9.9503  -9.6995  -9.4021  -9.3922  -9.2541  -9.2520
    -9.0656  -9.0637  -8.9469  -8.3472  -8.3455  -7.9263  -7.9212  -7.9052
    -7.8692  -7.7940  -7.6270  -7.6141  -7.1484  -7.1246  -6.9830  -6.9115
    -6.9093  -6.8750  -6.5544  -6.5524  -6.2811  -5.3645  -5.3494  -5.1670
    -5.0891  -4.8398  -4.8119  -4.7777  -4.6554  -4.6131  -4.3707  -4.3614
    -2.3532  -1.5871  -1.4363  -1.4251  -1.4080  -1.3688  -1.3563  -1.3434
    -1.3304  -1.3200  -1.3067  -1.2420   0.6302   0.9317   0.9901   1.1628
     1.2303   1.3187   1.4360   1.5650   1.6051   1.6468

          k =-0.5000-0.8660 0.0000 ( 59292 PWs)   bands (ev):

   -72.4632 -72.4629 -43.9289 -43.9284 -43.9227 -43.9224 -43.9180 -43.9178
   -21.0780 -21.0663 -20.4925 -20.4891 -19.4544 -19.4467 -19.4347 -19.4302
   -19.0192 -19.0099 -18.3568 -18.3452 -18.3434 -18.3271 -17.8169 -17.8135
   -12.0999 -12.0900 -12.0891 -12.0764 -11.9011 -11.8971 -11.3556 -11.3484
   -10.2589 -10.2556 -10.1588 -10.1559 -10.1531 -10.1502  -8.6064  -8.5765
    -8.5749  -8.5704  -8.5668  -8.5604  -7.8867  -7.8862  -7.8843  -7.8821
    -7.8464  -7.8439  -7.7968  -7.7876  -7.5164  -7.5071  -6.6350  -6.6312
    -6.3838  -6.3589  -6.3259  -6.3165  -6.2158  -6.2093  -5.7357  -5.7202
    -5.5719  -5.5630  -4.7569  -4.7428  -4.7313  -4.6995  -3.9053  -3.8972
    -2.2270  -1.7736  -1.4266  -1.4146  -1.3908  -1.3705  -1.3590  -1.3477
    -1.3399  -1.3384  -1.3181  -1.3103   0.9629   1.0294   1.0757   1.2330
     1.2689   1.3322   1.4331   1.5503   1.6251   1.6444

          k =-0.1667 0.2887 0.0000 ( 59267 PWs)   bands (ev):

   -72.4632 -72.4629 -43.9289 -43.9284 -43.9227 -43.9224 -43.9181 -43.9178
   -21.2709 -20.6876 -20.6769 -20.1334 -20.1155 -19.6146 -19.6039 -19.1236
   -18.7235 -18.7133 -18.4861 -18.4702 -18.2191 -18.1105 -18.1011 -17.8736
   -12.5076 -12.2334 -12.2221 -11.8456 -11.8407 -11.6820 -11.2177 -11.2104
   -10.4158 -10.3913 -10.1432 -10.1370  -9.6135  -9.6107  -8.8604  -8.8517
    -8.8437  -8.7926  -8.7830  -8.6200  -8.2209  -8.0719  -8.0444  -7.8542
    -7.8492  -7.4632  -7.4598  -7.3192  -7.2685  -7.2330  -7.2288  -6.9883
    -6.9750  -6.5885  -6.5636  -6.1778  -6.1761  -5.8957  -5.4425  -5.3180
    -5.2976  -5.2239  -4.9506  -4.9106  -4.5297  -4.3808  -4.3646  -4.0025
    -2.3443  -1.5936  -1.4336  -1.4249  -1.4081  -1.3657  -1.3566  -1.3433
    -1.3318  -1.3214  -1.3064  -1.2425   0.6097   0.7892   1.0168   1.1592
     1.2468   1.4350   1.4744   1.5465   1.5729   1.6243

          k = 0.3333 0.0000 0.0000 ( 59267 PWs)   bands (ev):

   -72.4632 -72.4629 -43.9289 -43.9284 -43.9227 -43.9224 -43.9181 -43.9178
   -21.2705 -20.7091 -20.6553 -20.1258 -20.1219 -19.6363 -19.5838 -19.1253
   -18.7376 -18.6949 -18.4806 -18.4777 -18.2146 -18.1309 -18.0866 -17.8730
   -12.5076 -12.2288 -12.2263 -11.8529 -11.8353 -11.6802 -11.2329 -11.1959
   -10.4145 -10.3915 -10.1535 -10.1270  -9.6189  -9.6044  -8.8681  -8.8471
    -8.8388  -8.8105  -8.7658  -8.6207  -8.2223  -8.1249  -7.9906  -7.8514
    -7.8501  -7.4682  -7.4545  -7.3111  -7.2730  -7.2413  -7.2204  -6.9832
    -6.9813  -6.6397  -6.5188  -6.1802  -6.1730  -5.9003  -5.4421  -5.3293
    -5.2786  -5.2243  -4.9398  -4.9245  -4.5205  -4.4043  -4.3509  -4.0022
    -2.2821  -1.6953  -1.4306  -1.4190  -1.3978  -1.3650  -1.3630  -1.3417
    -1.3375  -1.3311  -1.3144  -1.2974   0.9901   1.0142   1.0529   1.1800
     1.2524   1.3190   1.4586   1.4906   1.5478   1.5827

          k =-0.1667-0.4811 0.0000 ( 59291 PWs)   bands (ev):

   -72.4632 -72.4629 -43.9289 -43.9284 -43.9227 -43.9224 -43.9181 -43.9178
   -21.1405 -20.9363 -20.7468 -20.1848 -19.8283 -19.4910 -19.3407 -19.1988
   -19.0385 -18.8035 -18.6643 -18.5684 -18.1731 -18.1136 -17.9463 -17.7478
   -12.3716 -12.1369 -12.0684 -11.9303 -11.7047 -11.6817 -11.5764 -10.9658
   -10.9137 -10.6471 -10.5470  -9.8838  -9.7168  -9.3599  -9.1346  -8.6903
    -8.6465  -8.5768  -8.4128  -8.3911  -8.1851  -8.1488  -8.0873  -8.0732
    -7.7118  -7.6471  -7.5179  -7.4976  -7.3799  -7.1946  -7.0914  -6.8837
    -6.6459  -6.4140  -6.1992  -6.1815  -5.9973  -5.9531  -5.8073  -5.7685
    -5.4752  -5.4246  -5.2300  -5.0654  -4.4671  -4.3724  -4.1139  -3.7900
    -2.3357  -1.6000  -1.4310  -1.4250  -1.4082  -1.3635  -1.3570  -1.3432
    -1.3335  -1.3224  -1.3061  -1.2429   0.5903   0.6479   1.0536   1.0867
     1.1883   1.2255   1.3719   1.7430   1.8126   1.9051

          k = 0.5000-0.0962 0.0000 ( 59291 PWs)   bands (ev):

   -72.4632 -72.4629 -43.9289 -43.9284 -43.9227 -43.9224 -43.9181 -43.9178
   -21.1379 -20.9434 -20.7421 -20.1831 -19.8288 -19.4920 -19.3468 -19.1941
   -19.0393 -18.8035 -18.6556 -18.5744 -18.1618 -18.1290 -17.9433 -17.7477
   -12.3709 -12.1373 -12.0664 -11.9338 -11.7158 -11.6684 -11.5786 -10.9662
   -10.9116 -10.6455 -10.5492  -9.8818  -9.7175  -9.3609  -9.1341  -8.6798
    -8.6471  -8.5749  -8.4228  -8.4162  -8.1831  -8.1278  -8.0992  -8.0624
    -7.7084  -7.6476  -7.5170  -7.4988  -7.3742  -7.1960  -7.0921  -6.8853
    -6.6462  -6.4183  -6.2191  -6.1810  -5.9819  -5.9523  -5.8066  -5.7706
    -5.4763  -5.4209  -5.2105  -5.0810  -4.4450  -4.3997  -4.1091  -3.7905
    -2.2272  -1.7734  -1.4266  -1.4147  -1.3908  -1.3706  -1.3599  -1.3476
    -1.3397  -1.3384  -1.3181  -1.3104   0.9119   1.0176   1.0972   1.1506
     1.2591   1.3565   1.3947   1.4470   1.5879   1.7866

          k =-0.3333-0.3849 0.0000 ( 59291 PWs)   bands (ev):

   -72.4632 -72.4629 -43.9289 -43.9284 -43.9227 -43.9224 -43.9181 -43.9178
   -21.1388 -20.9409 -20.7439 -20.1830 -19.8302 -19.4907 -19.3423 -19.1969
   -19.0421 -18.8020 -18.6570 -18.5734 -18.1640 -18.1264 -17.9434 -17.7479
   -12.3712 -12.1357 -12.0685 -11.9329 -11.7056 -11.6797 -11.5775 -10.9659
   -10.9115 -10.6449 -10.5500  -9.8825  -9.7176  -9.3604  -9.1346  -8.6831
    -8.6458  -8.5770  -8.4148  -8.4106  -8.1847  -8.1351  -8.0874  -8.0750
    -7.7088  -7.6458  -7.5235  -7.4929  -7.3739  -7.1961  -7.0926  -6.8903
    -6.6442  -6.4131  -6.2042  -6.1832  -5.9921  -5.9515  -5.8068  -5.7798
    -5.4761  -5.4168  -5.2103  -5.0808  -4.4476  -4.3978  -4.1085  -3.7906
    -2.2708  -1.7050  -1.4282  -1.4184  -1.3984  -1.3660  -1.3597  -1.3427
    -1.3395  -1.3318  -1.3140  -1.2973   0.7990   0.9260   1.0950   1.1200
     1.1768   1.2948   1.3505   1.4862   1.7166   1.8459

          k = 0.5000 0.0962 0.0000 ( 59291 PWs)   bands (ev):

   -72.4632 -72.4629 -43.9289 -43.9284 -43.9227 -43.9224 -43.9181 -43.9178
   -21.1379 -20.9434 -20.7421 -20.1831 -19.8288 -19.4920 -19.3468 -19.1941
   -19.0393 -18.8035 -18.6556 -18.5744 -18.1617 -18.1290 -17.9433 -17.7477
   -12.3709 -12.1373 -12.0664 -11.9338 -11.7157 -11.6684 -11.5786 -10.9662
   -10.9116 -10.6455 -10.5492  -9.8818  -9.7176  -9.3609  -9.1340  -8.6798
    -8.6471  -8.5749  -8.4228  -8.4162  -8.1831  -8.1278  -8.0991  -8.0623
    -7.7084  -7.6475  -7.5170  -7.4988  -7.3742  -7.1960  -7.0921  -6.8853
    -6.6461  -6.4183  -6.2191  -6.1809  -5.9819  -5.9523  -5.8067  -5.7706
    -5.4763  -5.4209  -5.2105  -5.0810  -4.4450  -4.3997  -4.1091  -3.7905
    -2.2272  -1.7734  -1.4266  -1.4147  -1.3908  -1.3706  -1.3599  -1.3476
    -1.3397  -1.3384  -1.3181  -1.3103   0.9119   1.0176   1.0972   1.1506
     1.2591   1.3565   1.3946   1.4470   1.5879   1.7863

          k =-0.3333 0.3849 0.0000 ( 59291 PWs)   bands (ev):

   -72.4632 -72.4629 -43.9289 -43.9284 -43.9227 -43.9224 -43.9181 -43.9178
   -21.1388 -20.9409 -20.7439 -20.1830 -19.8302 -19.4907 -19.3423 -19.1969
   -19.0421 -18.8020 -18.6570 -18.5734 -18.1640 -18.1263 -17.9434 -17.7479
   -12.3712 -12.1357 -12.0685 -11.9329 -11.7056 -11.6798 -11.5775 -10.9659
   -10.9115 -10.6449 -10.5500  -9.8826  -9.7176  -9.3604  -9.1346  -8.6831
    -8.6459  -8.5769  -8.4148  -8.4107  -8.1847  -8.1351  -8.0874  -8.0751
    -7.7088  -7.6458  -7.5235  -7.4929  -7.3739  -7.1961  -7.0926  -6.8903
    -6.6443  -6.4131  -6.2042  -6.1832  -5.9921  -5.9516  -5.8068  -5.7798
    -5.4760  -5.4168  -5.2103  -5.0808  -4.4476  -4.3978  -4.1085  -3.7905
    -2.2708  -1.7050  -1.4282  -1.4184  -1.3984  -1.3660  -1.3597  -1.3427
    -1.3395  -1.3318  -1.3140  -1.2973   0.7990   0.9260   1.0950   1.1199
     1.1768   1.2948   1.3505   1.4862   1.7164   1.8459

          k =-0.1667-0.0962 0.0000 ( 59226 PWs)   bands (ev):

   -72.4632 -72.4629 -43.9289 -43.9284 -43.9227 -43.9224 -43.9181 -43.9178
   -21.3373 -20.5598 -20.3683 -20.3644 -20.0118 -20.0051 -19.8297 -18.7526
   -18.7471 -18.4026 -18.3880 -18.3807 -18.2978 -18.2805 -18.1003 -18.0965
   -12.5342 -12.5228 -12.4317 -11.6043 -11.6007 -11.4548 -11.4394 -10.9494
   -10.9479  -9.9525  -9.9504  -9.6995  -9.4021  -9.3922  -9.2541  -9.2520
    -9.0656  -9.0638  -8.9469  -8.3472  -8.3455  -7.9262  -7.9211  -7.9052
    -7.8691  -7.7940  -7.6270  -7.6141  -7.1484  -7.1246  -6.9830  -6.9115
    -6.9092  -6.8750  -6.5544  -6.5523  -6.2812  -5.3645  -5.3494  -5.1669
    -5.0892  -4.8398  -4.8118  -4.7777  -4.6553  -4.6131  -4.3707  -4.3614
    -2.3532  -1.5871  -1.4363  -1.4251  -1.4080  -1.3688  -1.3563  -1.3434
    -1.3304  -1.3200  -1.3067  -1.2420   0.6302   0.9317   0.9901   1.1627
     1.2303   1.3187   1.4360   1.5651   1.6051   1.6468

          k =-0.0000-0.1925 0.0000 ( 59226 PWs)   bands (ev):

   -72.4632 -72.4629 -43.9288 -43.9284 -43.9227 -43.9224 -43.9181 -43.9178
   -21.3374 -20.5549 -20.3824 -20.3586 -20.0143 -19.9955 -19.8333 -18.7583
   -18.7380 -18.4098 -18.4072 -18.3737 -18.2794 -18.2780 -18.1101 -18.0918
   -12.5300 -12.5275 -12.4312 -11.6114 -11.5950 -11.4472 -11.4443 -10.9527
   -10.9462  -9.9551  -9.9476  -9.7001  -9.3983  -9.3949  -9.2543  -9.2517
    -9.0653  -9.0649  -8.9475  -8.3485  -8.3431  -7.9243  -7.9235  -7.8846
    -7.8668  -7.7955  -7.6789  -7.5963  -7.1500  -7.0964  -6.9816  -6.9152
    -6.9071  -6.8890  -6.5575  -6.5485  -6.2818  -5.3806  -5.3239  -5.1673
    -5.0888  -4.8546  -4.8425  -4.7697  -4.6169  -4.6134  -4.3950  -4.3473
    -2.3778  -1.5505  -1.4378  -1.4276  -1.4120  -1.3690  -1.3538  -1.3443
    -1.3286  -1.3171  -1.3024  -1.1962   0.4657   0.8488   0.9484   1.1330
     1.2305   1.3496   1.4739   1.5954   1.6570   1.6798

          k = 0.5000-0.8660 0.0000 ( 59292 PWs)   bands (ev):

   -72.4632 -72.4629 -43.9289 -43.9284 -43.9227 -43.9224 -43.9180 -43.9178
   -21.0780 -21.0664 -20.4925 -20.4891 -19.4544 -19.4467 -19.4347 -19.4302
   -19.0191 -19.0100 -18.3568 -18.3452 -18.3433 -18.3271 -17.8169 -17.8135
   -12.0999 -12.0900 -12.0890 -12.0765 -11.9011 -11.8971 -11.3555 -11.3484
   -10.2589 -10.2557 -10.1588 -10.1559 -10.1531 -10.1502  -8.6064  -8.5765
    -8.5749  -8.5703  -8.5668  -8.5605  -7.8867  -7.8862  -7.8843  -7.8821
    -7.8465  -7.8439  -7.7968  -7.7876  -7.5164  -7.5072  -6.6349  -6.6311
    -6.3838  -6.3589  -6.3259  -6.3165  -6.2157  -6.2093  -5.7357  -5.7202
    -5.5720  -5.5631  -4.7569  -4.7428  -4.7312  -4.6995  -3.9054  -3.8973
    -2.2270  -1.7736  -1.4266  -1.4146  -1.3908  -1.3705  -1.3590  -1.3477
    -1.3399  -1.3384  -1.3181  -1.3103   0.9629   1.0294   1.0757   1.2331
     1.2689   1.3322   1.4331   1.5502   1.6251   1.6444

          k =-1.0000 0.0000 0.0000 ( 59292 PWs)   bands (ev):

   -72.4632 -72.4629 -43.9289 -43.9284 -43.9227 -43.9224 -43.9180 -43.9178
   -21.0979 -21.0438 -20.5043 -20.4817 -19.4559 -19.4442 -19.4387 -19.4213
   -19.0367 -18.9948 -18.3808 -18.3748 -18.3088 -18.3081 -17.8252 -17.8069
   -12.1190 -12.1109 -12.0627 -12.0586 -11.9096 -11.8898 -11.3731 -11.3328
   -10.2721 -10.2556 -10.1605 -10.1556 -10.1460 -10.1440  -8.6530  -8.5914
    -8.5892  -8.5459  -8.5445  -8.5163  -7.8993  -7.8991  -7.8813  -7.8770
    -7.8512  -7.8370  -7.8239  -7.7636  -7.5362  -7.4895  -6.6380  -6.6260
    -6.3921  -6.3490  -6.3282  -6.2951  -6.2315  -6.1966  -5.7584  -5.7081
    -5.5892  -5.5460  -4.8120  -4.7758  -4.6780  -4.6657  -3.9248  -3.8802
    -2.3617  -1.5611  -1.4323  -1.4278  -1.4118  -1.3636  -1.3541  -1.3442
    -1.3313  -1.3192  -1.3020  -1.1978   0.4382   0.5858   1.0632   1.0758
     1.1672   1.4246   1.5746   1.5961   1.6163   1.8622

 ------ SPIN DOWN ----------


          k = 0.1667 0.2887 0.0000 ( 59267 PWs)   bands (ev):

   -68.0916 -68.0911 -39.5952 -39.5948 -39.5837 -39.5835 -39.5810 -39.5808
   -21.2636 -20.6798 -20.6707 -20.1253 -20.1095 -19.6069 -19.5978 -19.1164
   -18.7145 -18.7064 -18.4780 -18.4640 -18.2103 -18.1033 -18.0957 -17.8663
   -12.5029 -12.2275 -12.2181 -11.8409 -11.8366 -11.6779 -11.2125 -11.2059
   -10.4104 -10.3864 -10.1376 -10.1323  -9.6086  -9.6061  -8.8476  -8.8385
    -8.8319  -8.7874  -8.7790  -8.6155  -8.2165  -8.0436  -8.0239  -7.8495
    -7.8449  -7.4572  -7.4545  -7.2876  -7.2537  -7.2283  -7.2246  -6.9831
    -6.9713  -6.5638  -6.5457  -6.1730  -6.1716  -5.8730  -5.4370  -5.2902
    -5.2773  -5.2191  -4.9254  -4.8958  -4.5056  -4.3601  -4.3498  -3.9832
    -0.2728   0.6792   1.0582   1.1916   1.3576   1.4011   1.4447   1.5035
     1.5521   1.8101   1.9027   2.1103   2.1965   2.2501   2.2966   2.3834
     2.4454   2.5035   2.5321   2.5772   2.6016   2.6351

          k = 0.1667-0.4811 0.0000 ( 59291 PWs)   bands (ev):

   -68.0916 -68.0911 -39.5952 -39.5948 -39.5837 -39.5835 -39.5810 -39.5808
   -21.1326 -20.9303 -20.7396 -20.1775 -19.8214 -19.4838 -19.3338 -19.1914
   -19.0314 -18.7964 -18.6549 -18.5628 -18.1625 -18.1098 -17.9388 -17.7404
   -12.3668 -12.1320 -12.0639 -11.9259 -11.7006 -11.6769 -11.5718 -10.9607
   -10.9084 -10.6416 -10.5425  -9.8783  -9.7122  -9.3546  -9.1299  -8.6589
    -8.6417  -8.5713  -8.4085  -8.3743  -8.1806  -8.1226  -8.0825  -8.0690
    -7.7068  -7.6424  -7.5131  -7.4936  -7.3546  -7.1894  -7.0870  -6.8617
    -6.6402  -6.3916  -6.1788  -6.1759  -5.9745  -5.9474  -5.8024  -5.7475
    -5.4705  -5.4018  -5.1999  -5.0517  -4.4377  -4.3628  -4.0935  -3.7712
    -0.2347   0.6505   1.0089   1.1118   1.1422   1.2743   1.3495   1.7590
     1.8427   1.8862   2.0398   2.1013   2.2339   2.2793   2.2954   2.3584
     2.4456   2.4693   2.5060   2.5205   2.5646   2.6482

          k = 0.1667-0.0962 0.0000 ( 59226 PWs)   bands (ev):

   -68.0916 -68.0911 -39.5952 -39.5948 -39.5837 -39.5835 -39.5810 -39.5808
   -21.3302 -20.5517 -20.3615 -20.3583 -20.0037 -19.9983 -19.8238 -18.7442
   -18.7396 -18.3941 -18.3813 -18.3730 -18.2892 -18.2743 -18.0936 -18.0905
   -12.5285 -12.5189 -12.4270 -11.5996 -11.5965 -11.4490 -11.4356 -10.9444
   -10.9432  -9.9476  -9.9456  -9.6942  -9.3970  -9.3877  -9.2485  -9.2469
    -9.0609  -9.0594  -8.9211  -8.3416  -8.3400  -7.9215  -7.9168  -7.8756
    -7.8612  -7.7897  -7.6047  -7.5966  -7.1188  -7.1039  -6.9781  -6.9069
    -6.9050  -6.8594  -6.5497  -6.5479  -6.2766  -5.3373  -5.3275  -5.1619
    -5.0841  -4.8154  -4.7915  -4.7571  -4.6299  -4.5986  -4.3511  -4.3448
    -0.3081   0.7109   1.0851   1.1121   1.2267   1.4558   1.4935   1.5555
     1.7985   1.9018   1.9790   2.0285   2.0875   2.1348   2.2918   2.3779
     2.4457   2.4769   2.5081   2.5789   2.6081   2.6349

          k =-0.5000-0.8660 0.0000 ( 59292 PWs)   bands (ev):

   -68.0916 -68.0911 -39.5952 -39.5948 -39.5837 -39.5835 -39.5810 -39.5808
   -21.0698 -21.0600 -20.4857 -20.4826 -19.4451 -19.4388 -19.4284 -19.4240
   -19.0115 -19.0039 -18.3477 -18.3375 -18.3353 -18.3222 -17.8095 -17.8064
   -12.0934 -12.0849 -12.0844 -12.0731 -11.8968 -11.8932 -11.3504 -11.3439
   -10.2537 -10.2508 -10.1530 -10.1504 -10.1484 -10.1459  -8.5753  -8.5700
    -8.5660  -8.5627  -8.5568  -8.5522  -7.8819  -7.8815  -7.8795  -7.8778
    -7.8407  -7.8384  -7.7746  -7.7676  -7.5116  -7.5034  -6.6298  -6.6265
    -6.3468  -6.3310  -6.3089  -6.3017  -6.2103  -6.2045  -5.7135  -5.7026
    -5.5665  -5.5587  -4.7310  -4.7196  -4.7095  -4.6869  -3.8853  -3.8791
    -0.0981   0.2813   1.0231   1.0606   1.4432   1.4695   1.5017   1.5351
     1.7545   1.7696   2.0482   2.0777   2.1808   2.2693   2.3870   2.3989
     2.4428   2.4670   2.5154   2.5340   2.5698   2.6601

          k =-0.1667 0.2887 0.0000 ( 59267 PWs)   bands (ev):

   -68.0916 -68.0911 -39.5952 -39.5948 -39.5837 -39.5835 -39.5810 -39.5808
   -21.2636 -20.6798 -20.6707 -20.1253 -20.1095 -19.6068 -19.5978 -19.1164
   -18.7145 -18.7064 -18.4780 -18.4640 -18.2103 -18.1032 -18.0957 -17.8663
   -12.5028 -12.2275 -12.2181 -11.8409 -11.8366 -11.6779 -11.2124 -11.2059
   -10.4105 -10.3863 -10.1376 -10.1323  -9.6085  -9.6061  -8.8476  -8.8384
    -8.8319  -8.7874  -8.7790  -8.6155  -8.2165  -8.0436  -8.0239  -7.8495
    -7.8449  -7.4572  -7.4545  -7.2876  -7.2537  -7.2283  -7.2246  -6.9831
    -6.9714  -6.5637  -6.5457  -6.1729  -6.1716  -5.8730  -5.4371  -5.2902
    -5.2773  -5.2190  -4.9253  -4.8958  -4.5056  -4.3601  -4.3498  -3.9832
    -0.2728   0.6792   1.0583   1.1916   1.3576   1.4010   1.4447   1.5035
     1.5521   1.8101   1.9027   2.1103   2.1964   2.2503   2.2967   2.3831
     2.4454   2.5036   2.5321   2.5772   2.6015   2.6354

          k = 0.3333 0.0000 0.0000 ( 59267 PWs)   bands (ev):

   -68.0916 -68.0911 -39.5952 -39.5948 -39.5837 -39.5835 -39.5810 -39.5808
   -21.2633 -20.6983 -20.6521 -20.1191 -20.1147 -19.6253 -19.5806 -19.1176
   -18.7263 -18.6916 -18.4728 -18.4706 -18.2071 -18.1196 -18.0834 -17.8659
   -12.5028 -12.2238 -12.2215 -11.8477 -11.8314 -11.6764 -11.2263 -11.1926
   -10.4095 -10.3865 -10.1464 -10.1237  -9.6133  -9.6007  -8.8498  -8.8415
    -8.8255  -8.8035  -8.7636  -8.6161  -8.2177  -8.0829  -7.9844  -7.8471
    -7.8457  -7.4613  -7.4502  -7.2816  -7.2574  -7.2355  -7.2173  -6.9785
    -6.9768  -6.6009  -6.5121  -6.1751  -6.1688  -5.8755  -5.4368  -5.3013
    -5.2620  -5.2193  -4.9171  -4.9056  -4.5007  -4.3777  -4.3375  -3.9829
    -0.2107   0.4578   1.0731   1.1712   1.3577   1.4590   1.4899   1.5097
     1.5836   1.8268   2.0514   2.1199   2.2378   2.2633   2.3141   2.4186
     2.4432   2.4612   2.5329   2.5647   2.5951   2.6097

          k =-0.1667-0.4811 0.0000 ( 59291 PWs)   bands (ev):

   -68.0916 -68.0911 -39.5952 -39.5948 -39.5837 -39.5835 -39.5810 -39.5808
   -21.1326 -20.9303 -20.7396 -20.1775 -19.8214 -19.4838 -19.3338 -19.1914
   -19.0314 -18.7964 -18.6549 -18.5628 -18.1625 -18.1098 -17.9388 -17.7404
   -12.3668 -12.1320 -12.0639 -11.9258 -11.7006 -11.6769 -11.5718 -10.9607
   -10.9084 -10.6416 -10.5425  -9.8782  -9.7122  -9.3547  -9.1299  -8.6589
    -8.6416  -8.5714  -8.4085  -8.3743  -8.1805  -8.1226  -8.0826  -8.0690
    -7.7068  -7.6425  -7.5131  -7.4936  -7.3546  -7.1894  -7.0870  -6.8617
    -6.6402  -6.3916  -6.1788  -6.1759  -5.9745  -5.9473  -5.8024  -5.7474
    -5.4706  -5.4018  -5.1999  -5.0517  -4.4376  -4.3628  -4.0935  -3.7712
    -0.2347   0.6505   1.0089   1.1118   1.1422   1.2744   1.3496   1.7590
     1.8427   1.8862   2.0397   2.1013   2.2339   2.2794   2.2954   2.3584
     2.4457   2.4694   2.5059   2.5206   2.5650   2.6468

          k = 0.5000-0.0962 0.0000 ( 59291 PWs)   bands (ev):

   -68.0916 -68.0911 -39.5952 -39.5948 -39.5837 -39.5835 -39.5810 -39.5808
   -21.1307 -20.9356 -20.7361 -20.1762 -19.8217 -19.4845 -19.3382 -19.1880
   -19.0319 -18.7964 -18.6486 -18.5671 -18.1540 -18.1210 -17.9368 -17.7404
   -12.3662 -12.1324 -12.0622 -11.9288 -11.7101 -11.6655 -11.5736 -10.9611
   -10.9067 -10.6404 -10.5443  -9.8767  -9.7128  -9.3554  -9.1295  -8.6531
    -8.6421  -8.5699  -8.4114  -8.3918  -8.1789  -8.1111  -8.0927  -8.0598
    -7.7041  -7.6429  -7.5123  -7.4946  -7.3514  -7.1904  -7.0875  -6.8625
    -6.6405  -6.3939  -6.1889  -6.1764  -5.9659  -5.9470  -5.8018  -5.7486
    -5.4714  -5.4001  -5.1888  -5.0605  -4.4241  -4.3792  -4.0908  -3.7714
    -0.1005   0.2876   1.0068   1.1081   1.1511   1.2914   1.6255   1.7464
     1.7875   1.9975   2.0406   2.1640   2.2107   2.2749   2.3360   2.3760
     2.4455   2.4900   2.5200   2.5475   2.5895   2.6326

          k =-0.3333-0.3849 0.0000 ( 59291 PWs)   bands (ev):

   -68.0916 -68.0911 -39.5952 -39.5948 -39.5837 -39.5835 -39.5810 -39.5808
   -21.1313 -20.9337 -20.7374 -20.1762 -19.8227 -19.4836 -19.3349 -19.1900
   -19.0340 -18.7953 -18.6495 -18.5664 -18.1555 -18.1192 -17.9368 -17.7405
   -12.3665 -12.1310 -12.0640 -11.9280 -11.7014 -11.6752 -11.5727 -10.9609
   -10.9066 -10.6399 -10.5449  -9.8772  -9.7128  -9.3551  -9.1298  -8.6548
    -8.6411  -8.5713  -8.4095  -8.3855  -8.1803  -8.1152  -8.0826  -8.0705
    -7.7044  -7.6415  -7.5177  -7.4898  -7.3512  -7.1905  -7.0878  -6.8653
    -6.6390  -6.3911  -6.1808  -6.1778  -5.9715  -5.9463  -5.8020  -5.7535
    -5.4713  -5.3979  -5.1888  -5.0603  -4.4255  -4.3782  -4.0906  -3.7714
    -0.1586   0.4068   1.0075   1.0819   1.1873   1.2796   1.5033   1.7581
     1.9230   1.9623   2.0359   2.0634   2.1958   2.2953   2.3071   2.4053
     2.4297   2.4784   2.5059   2.5499   2.5900   2.6232

          k = 0.5000 0.0962 0.0000 ( 59291 PWs)   bands (ev):

   -68.0916 -68.0911 -39.5952 -39.5948 -39.5837 -39.5835 -39.5810 -39.5808
   -21.1307 -20.9356 -20.7361 -20.1762 -19.8217 -19.4845 -19.3382 -19.1880
   -19.0319 -18.7964 -18.6486 -18.5671 -18.1540 -18.1210 -17.9368 -17.7404
   -12.3662 -12.1324 -12.0622 -11.9288 -11.7100 -11.6655 -11.5736 -10.9611
   -10.9067 -10.6404 -10.5443  -9.8767  -9.7128  -9.3554  -9.1294  -8.6531
    -8.6421  -8.5699  -8.4114  -8.3918  -8.1789  -8.1111  -8.0927  -8.0597
    -7.7041  -7.6429  -7.5124  -7.4946  -7.3514  -7.1905  -7.0874  -6.8625
    -6.6404  -6.3939  -6.1889  -6.1763  -5.9659  -5.9469  -5.8019  -5.7486
    -5.4715  -5.4001  -5.1888  -5.0605  -4.4241  -4.3792  -4.0909  -3.7714
    -0.1005   0.2876   1.0068   1.1082   1.1511   1.2914   1.6256   1.7464
     1.7875   1.9975   2.0406   2.1639   2.2107   2.2750   2.3360   2.3760
     2.4453   2.4902   2.5200   2.5474   2.5895   2.6325

          k =-0.3333 0.3849 0.0000 ( 59291 PWs)   bands (ev):

   -68.0916 -68.0911 -39.5952 -39.5948 -39.5837 -39.5835 -39.5810 -39.5808
   -21.1313 -20.9337 -20.7374 -20.1762 -19.8227 -19.4836 -19.3349 -19.1900
   -19.0340 -18.7953 -18.6495 -18.5664 -18.1555 -18.1192 -17.9368 -17.7405
   -12.3665 -12.1310 -12.0640 -11.9280 -11.7014 -11.6753 -11.5726 -10.9609
   -10.9066 -10.6399 -10.5449  -9.8772  -9.7128  -9.3551  -9.1298  -8.6548
    -8.6411  -8.5713  -8.4096  -8.3855  -8.1803  -8.1152  -8.0826  -8.0705
    -7.7044  -7.6415  -7.5177  -7.4898  -7.3512  -7.1905  -7.0879  -6.8653
    -6.6390  -6.3911  -6.1808  -6.1778  -5.9715  -5.9464  -5.8020  -5.7536
    -5.4712  -5.3979  -5.1889  -5.0603  -4.4255  -4.3782  -4.0906  -3.7714
    -0.1586   0.4068   1.0074   1.0819   1.1873   1.2796   1.5033   1.7581
     1.9230   1.9623   2.0359   2.0634   2.1958   2.2952   2.3071   2.4053
     2.4297   2.4786   2.5060   2.5500   2.5900   2.6224

          k =-0.1667-0.0962 0.0000 ( 59226 PWs)   bands (ev):

   -68.0916 -68.0911 -39.5952 -39.5948 -39.5837 -39.5835 -39.5810 -39.5808
   -21.3302 -20.5517 -20.3615 -20.3583 -20.0037 -19.9983 -19.8238 -18.7442
   -18.7396 -18.3942 -18.3813 -18.3730 -18.2892 -18.2743 -18.0936 -18.0905
   -12.5285 -12.5189 -12.4270 -11.5996 -11.5965 -11.4490 -11.4356 -10.9444
   -10.9432  -9.9476  -9.9456  -9.6942  -9.3970  -9.3876  -9.2485  -9.2469
    -9.0609  -9.0594  -8.9211  -8.3416  -8.3401  -7.9215  -7.9168  -7.8755
    -7.8611  -7.7897  -7.6046  -7.5966  -7.1188  -7.1039  -6.9782  -6.9069
    -6.9050  -6.8594  -6.5496  -6.5478  -6.2767  -5.3373  -5.3275  -5.1618
    -5.0842  -4.8154  -4.7914  -4.7571  -4.6299  -4.5986  -4.3511  -4.3448
    -0.3081   0.7109   1.0850   1.1120   1.2267   1.4559   1.4935   1.5555
     1.7986   1.9018   1.9790   2.0285   2.0874   2.1349   2.2918   2.3778
     2.4457   2.4767   2.5084   2.5787   2.6080   2.6347

          k =-0.0000-0.1925 0.0000 ( 59226 PWs)   bands (ev):

   -68.0916 -68.0911 -39.5952 -39.5948 -39.5837 -39.5835 -39.5810 -39.5808
   -21.3303 -20.5481 -20.3734 -20.3525 -20.0068 -19.9899 -19.8264 -18.7495
   -18.7318 -18.3982 -18.3964 -18.3677 -18.2752 -18.2734 -18.1018 -18.0859
   -12.5248 -12.5229 -12.4266 -11.6060 -11.5913 -11.4425 -11.4399 -10.9473
   -10.9416  -9.9496  -9.9434  -9.6947  -9.3936  -9.3902  -9.2490  -9.2464
    -9.0609  -9.0600  -8.9214  -8.3430  -8.3379  -7.9194  -7.9192  -7.8683
    -7.8555  -7.7908  -7.6372  -7.5828  -7.1237  -7.0840  -6.9770  -6.9102
    -6.9029  -6.8672  -6.5525  -6.5445  -6.2770  -5.3499  -5.3099  -5.1621
    -5.0839  -4.8214  -4.8110  -4.7524  -4.6060  -4.6011  -4.3678  -4.3336
    -0.3301   0.8500   1.0907   1.0981   1.2394   1.4158   1.4907   1.5077
     1.7844   1.8668   1.9057   1.9545   2.0231   2.2153   2.3331   2.3508
     2.3953   2.4990   2.5130   2.5827   2.6444   2.7189

          k = 0.5000-0.8660 0.0000 ( 59292 PWs)   bands (ev):

   -68.0916 -68.0911 -39.5952 -39.5948 -39.5837 -39.5835 -39.5810 -39.5808
   -21.0698 -21.0600 -20.4857 -20.4826 -19.4451 -19.4388 -19.4284 -19.4240
   -19.0114 -19.0040 -18.3477 -18.3375 -18.3353 -18.3223 -17.8095 -17.8064
   -12.0935 -12.0849 -12.0843 -12.0732 -11.8967 -11.8932 -11.3503 -11.3439
   -10.2538 -10.2508 -10.1530 -10.1504 -10.1484 -10.1459  -8.5753  -8.5699
    -8.5658  -8.5627  -8.5569  -8.5522  -7.8818  -7.8815  -7.8795  -7.8778
    -7.8408  -7.8385  -7.7746  -7.7676  -7.5117  -7.5034  -6.6297  -6.6265
    -6.3468  -6.3310  -6.3089  -6.3017  -6.2102  -6.2045  -5.7135  -5.7026
    -5.5666  -5.5588  -4.7310  -4.7196  -4.7094  -4.6869  -3.8853  -3.8791
    -0.0981   0.2813   1.0232   1.0607   1.4432   1.4695   1.5017   1.5350
     1.7546   1.7695   2.0481   2.0778   2.1806   2.2695   2.3873   2.3989
     2.4429   2.4670   2.5152   2.5340   2.5701   2.6615

          k =-1.0000 0.0000 0.0000 ( 59292 PWs)   bands (ev):

   -68.0916 -68.0911 -39.5952 -39.5948 -39.5837 -39.5835 -39.5810 -39.5808
   -21.0872 -21.0406 -20.4957 -20.4758 -19.4468 -19.4369 -19.4317 -19.4166
   -19.0257 -18.9915 -18.3672 -18.3618 -18.3070 -18.3069 -17.8164 -17.8007
   -12.1114 -12.1039 -12.0608 -12.0565 -11.9045 -11.8864 -11.3662 -11.3297
   -10.2645 -10.2508 -10.1546 -10.1511 -10.1418 -10.1403  -8.6111  -8.5846
    -8.5817  -8.5437  -8.5427  -8.5103  -7.8930  -7.8919  -7.8771  -7.8728
    -7.8340  -7.8336  -7.7992  -7.7507  -7.5292  -7.4875  -6.6325  -6.6222
    -6.3537  -6.3268  -6.3112  -6.2855  -6.2241  -6.1930  -5.7306  -5.6909
    -5.5814  -5.5439  -4.7702  -4.7417  -4.6721  -4.6635  -3.8990  -3.8669
    -0.2628   0.8010   1.0441   1.0542   1.2683   1.3600   1.4185   1.5830
     1.6172   1.7062   1.8829   2.1436   2.1913   2.2904   2.3058   2.3843
     2.4092   2.5077   2.5449   2.5729   2.6283   2.6525

     the Fermi energy is    -0.8052 ev

!    total energy              =   -1133.81299548 Ry

     total all-electron energy =     -6753.488698 Ry
     estimated scf accuracy    <       0.00000002 Ry
     smearing contrib. (-TS)   =      -0.00000000 Ry
     internal energy E=F+TS    =   -1133.81299548 Ry

     The total energy is F=E-TS. E is the sum of the following terms:
     one-electron contribution =   -3916.37468188 Ry
     hartree contribution      =    1986.78623555 Ry
     xc contribution           =    -186.20200629 Ry
     ewald contribution        =    1341.34533025 Ry
     DFT-D3 Dispersion         =      -0.13991756 Ry
     one-center paw contrib.   =    -359.22795555 Ry

     total magnetization       =    12.00 Bohr mag/cell
     absolute magnetization    =    12.00 Bohr mag/cell

     convergence has been achieved in  12 iterations

     Writing output data file ./mytmp/Crdimer0.22-0.2.save/
 
     init_run     :     18.07s CPU     19.33s WALL (       1 calls)
     electrons    :    441.97s CPU    471.64s WALL (       1 calls)

     Called by init_run:
     wfcinit      :     13.41s CPU     13.98s WALL (       1 calls)
     potinit      :      1.53s CPU      1.61s WALL (       1 calls)
     hinit0       :      1.52s CPU      1.61s WALL (       1 calls)

     Called by electrons:
     c_bands      :    358.75s CPU    381.03s WALL (      12 calls)
     sum_band     :     64.19s CPU     68.79s WALL (      12 calls)
     v_of_rho     :      3.99s CPU      4.25s WALL (      13 calls)
     newd         :      8.11s CPU     10.97s WALL (      13 calls)
     PAW_pot      :      6.36s CPU      6.44s WALL (      13 calls)
     mix_rho      :      0.84s CPU      0.85s WALL (      12 calls)

     Called by c_bands:
     init_us_2    :      4.31s CPU      4.35s WALL (     750 calls)
     cegterg      :    348.21s CPU    370.42s WALL (     360 calls)

     Called by *egterg:
     cdiaghg      :     23.22s CPU     36.93s WALL (    2509 calls)
     h_psi        :    224.09s CPU    232.17s WALL (    2539 calls)
     s_psi        :     24.88s CPU     24.91s WALL (    2539 calls)
     g_psi        :      0.69s CPU      0.71s WALL (    2149 calls)

     Called by h_psi:
     h_psi:calbec :     25.77s CPU     26.28s WALL (    2539 calls)
     vloc_psi     :    170.85s CPU    178.35s WALL (    2539 calls)
     add_vuspsi   :     25.48s CPU     25.55s WALL (    2539 calls)

     General routines
     calbec       :     33.75s CPU     34.42s WALL (    2899 calls)
     fft          :      3.65s CPU      4.38s WALL (     319 calls)
     ffts         :      0.10s CPU      0.11s WALL (      50 calls)
     fftw         :    173.72s CPU    181.41s WALL (  228238 calls)
     interpolate  :      0.37s CPU      0.40s WALL (      26 calls)
 
     Parallel routines
     fft_scatt_xy :     27.43s CPU     28.50s WALL (  228607 calls)
     fft_scatt_yz :     68.36s CPU     72.47s WALL (  228607 calls)
 
     PWSCF        :   7m41.98s CPU   8m15.02s WALL

 
   This run was terminated on:  21:20:30  29Mar2021            

=------------------------------------------------------------------------------=
   JOB DONE.
=------------------------------------------------------------------------------=
