
     Program PWSCF v.6.7MaX starts on 29Mar2021 at 20:55:24 

     This program is part of the open-source Quantum ESPRESSO suite
     for quantum simulation of materials; please cite
         "P. Giannozzi et al., J. Phys.:Condens. Matter 21 395502 (2009);
         "P. Giannozzi et al., J. Phys.:Condens. Matter 29 465901 (2017);
          URL http://www.quantum-espresso.org", 
     in publications or presentations arising from this work. More details at
     http://www.quantum-espresso.org/quote

     Parallel version (MPI), running on    48 processors

     MPI processes distributed on     1 nodes
     R & G space division:  proc/nbgrp/npool/nimage =      48
     Reading input from Crdimer0.22-0.0.scf.in

     Current dimensions of program PWSCF are:
     Max number of different atomic species (ntypx) = 10
     Max number of k-points (npk) =  40000
     Max angular momentum in pseudopotentials (lmaxx) =  3
     file N.pbe-n-kjpaw_psl.1.0.0.UPF: wavefunction(s)  2S renormalized
     file Cr.pbe-spn-kjpaw_psl.1.0.0.UPF: wavefunction(s)  3S 3P 3D renormalized
     file Cr.pbe-spn-kjpaw_psl.1.0.0.UPF: wavefunction(s)  3S 3P 3D renormalized

     --------------------------------------------
     Parameters for DFT-D3 Dispersion Correction:
     --------------------------------------------
       Reference C6 values for interpolation: 

         atom   Coordination number   C6
         B          0.000           214.36
         B          0.971           150.74
         B          1.944           106.23
         B          2.913            62.89
         B          4.586            56.06
         N          0.000            50.54
         N          0.994            44.25
         N          2.014            39.35
         N          2.990            31.16
         Cr1        0.000          1381.48
         Cr1        1.827           571.38
         Cr1       10.619           306.69
         Cr2        0.000          1381.48
         Cr2        1.827           571.38
         Cr2       10.619           306.69

       Values used:

         atom   Coordination number  R0_AB[au]  C6      C8
         B          3.337            3.039     62.89   2505.96
         B          3.337            3.039     62.89   2505.96
         B          3.344            3.039     62.89   2505.80
         B          3.338            3.039     62.89   2505.93
         B          3.339            3.039     62.89   2505.93
         B          3.339            3.039     62.89   2505.93
         N          3.134            2.478     31.22    688.70
         N          3.134            2.478     31.22    688.70
         N          3.148            2.478     31.21    688.57
         N          3.141            2.478     31.22    688.64
         N          3.135            2.478     31.22    688.69
         N          3.134            2.478     31.22    688.70
         N          3.135            2.478     31.22    688.69
         N          3.135            2.478     31.22    688.69
         N          3.137            2.478     31.22    688.67
         B          3.335            3.039     62.89   2506.00
         B          3.337            3.039     62.89   2505.96
         B          3.339            3.039     62.89   2505.93
         B          3.339            3.039     62.89   2505.93
         B          3.337            3.039     62.89   2505.96
         B          3.335            3.039     62.89   2506.00
         N          3.135            2.478     31.22    688.69
         B          3.335            3.039     62.89   2506.01
         B          3.335            3.039     62.89   2506.01
         B          3.381            3.039     62.86   2504.69
         N          3.134            2.478     31.22    688.70
         N          3.134            2.478     31.22    688.70
         N          3.143            2.478     31.21    688.61
         N          3.143            2.478     31.21    688.61
         N          3.148            2.478     31.21    688.57
         N          3.141            2.478     31.22    688.64
         B          3.381            3.039     62.86   2504.69
         Cr1        0.109            3.252   1381.48 127494.69
         Cr2        0.109            3.252   1381.48 127494.69

         Molecular C6 ( Ry / a.u.^6 ) =     79164.15


     Subspace diagonalization in iterative solution of the eigenvalue problem:
     one sub-group per band group will be used
     scalapack distributed-memory algorithm (size of sub-group:  6*  6 procs)

 
     Parallelization info
     --------------------
     sticks:   dense  smooth     PW     G-vecs:    dense   smooth      PW
     Min         235      98     26                36277     9874    1408
     Max         236      99     27                36282     9883    1425
     Sum       11311    4741   1285              1741401   474235   68095
 


     bravais-lattice index     =            4
     lattice parameter (alat)  =      18.9275  a.u.
     unit-cell volume          =   10553.3021 (a.u.)^3
     number of atoms/cell      =           34
     number of atomic types    =            4
     number of electrons       =       156.00
     number of Kohn-Sham states=           94
     kinetic-energy cutoff     =      48.0000  Ry
     charge density cutoff     =     457.0000  Ry
     scf convergence threshold =      1.0E-07
     mixing beta               =       0.5000
     number of iterations used =            8  plain     mixing
     Exchange-correlation= SLA  PW   PBX  PBC
                           (   1   4   3   4   0   0   0)

     celldm(1)=  18.927497  celldm(2)=   0.000000  celldm(3)=   1.797125
     celldm(4)=   0.000000  celldm(5)=   0.000000  celldm(6)=   0.000000

     crystal axes: (cart. coord. in units of alat)
               a(1) = (   1.000000   0.000000   0.000000 )  
               a(2) = (  -0.500000   0.866025   0.000000 )  
               a(3) = (   0.000000   0.000000   1.797125 )  

     reciprocal axes: (cart. coord. in units 2 pi/alat)
               b(1) = (  1.000000  0.577350  0.000000 )  
               b(2) = (  0.000000  1.154701  0.000000 )  
               b(3) = (  0.000000  0.000000  0.556444 )  


     PseudoPot. # 1 for B  read from file:
     /home/sf05/q-e-qe-6.7MaX-Release/pseudo/B.pbe-n-kjpaw_psl.1.0.0.UPF
     MD5 check sum: d9c678ba5d3b2fd7b74e61139c9288d8
     Pseudo is Projector augmented-wave + core cor, Zval =  3.0
     Generated using "atomic" code by A. Dal Corso  v.5.1.2
     Shape of augmentation charge: PSQ
     Using radial grid of 1059 points,  4 beta functions with: 
                l(1) =   0
                l(2) =   0
                l(3) =   1
                l(4) =   1
     Q(r) pseudized with 0 coefficients 


     PseudoPot. # 2 for N  read from file:
     /home/sf05/q-e-qe-6.7MaX-Release/pseudo/N.pbe-n-kjpaw_psl.1.0.0.UPF
     MD5 check sum: e0e4e94a9c4025c5b51bd7d8793849bd
     Pseudo is Projector augmented-wave + core cor, Zval =  5.0
     Generated using "atomic" code by A. Dal Corso  v.5.1.2
     Shape of augmentation charge: PSQ
     Using radial grid of 1085 points,  4 beta functions with: 
                l(1) =   0
                l(2) =   0
                l(3) =   1
                l(4) =   1
     Q(r) pseudized with 0 coefficients 


     PseudoPot. # 3 for Cr read from file:
     /home/sf05/q-e-qe-6.7MaX-Release/pseudo/Cr.pbe-spn-kjpaw_psl.1.0.0.UPF
     MD5 check sum: 198f1a2427a48552563eee314eba32ba
     Pseudo is Projector augmented-wave + core cor, Zval = 14.0
     Generated using &quot;atomic&quot; code by A. Dal Corso  v.6.3
     Shape of augmentation charge: PSQ
     Using radial grid of 1183 points,  6 beta functions with: 
                l(1) =   0
                l(2) =   0
                l(3) =   1
                l(4) =   1
                l(5) =   2
                l(6) =   2
     Q(r) pseudized with 0 coefficients 


     PseudoPot. # 4 for Cr read from file:
     /home/sf05/q-e-qe-6.7MaX-Release/pseudo/Cr.pbe-spn-kjpaw_psl.1.0.0.UPF
     MD5 check sum: 198f1a2427a48552563eee314eba32ba
     Pseudo is Projector augmented-wave + core cor, Zval = 14.0
     Generated using &quot;atomic&quot; code by A. Dal Corso  v.6.3
     Shape of augmentation charge: PSQ
     Using radial grid of 1183 points,  6 beta functions with: 
                l(1) =   0
                l(2) =   0
                l(3) =   1
                l(4) =   1
                l(5) =   2
                l(6) =   2
     Q(r) pseudized with 0 coefficients 


     atomic species   valence    mass     pseudopotential
        B              3.00    10.81100     B ( 1.00)
        N              5.00    14.00674     N ( 1.00)
        Cr1           14.00    51.99610     Cr( 1.00)
        Cr2           14.00    51.99610     Cr( 1.00)

     Starting magnetic structure 
     atomic species   magnetization
        B            0.000
        N            0.000
        Cr1          1.000
        Cr2          1.000

     No symmetry found



   Cartesian axes

     site n.     atom                  positions (alat units)
         1           B   tau(   1) = (  -0.1250000   0.2165064   0.8985623  )
         2           B   tau(   2) = (   0.3750000   0.6495191   0.8985623  )
         3           B   tau(   3) = (   0.2500000   0.0000000   0.8985623  )
         4           B   tau(   4) = (   0.7500000   0.0000000   0.8985623  )
         5           B   tau(   5) = (   0.1250000   0.2165064   0.8985623  )
         6           B   tau(   6) = (  -0.3750000   0.6495191   0.8985623  )
         7           N   tau(   7) = (   0.7500005   0.2886748   0.8985623  )
         8           N   tau(   8) = (   0.3750005   0.5051812   0.8985623  )
         9           N   tau(   9) = (   0.3750005   0.0721685   0.8985623  )
        10           N   tau(  10) = (   0.6250005   0.0721685   0.8985623  )
        11           N   tau(  11) = (   0.2500005   0.2886748   0.8985623  )
        12           N   tau(  12) = (   0.6250005   0.5051812   0.8985623  )
        13           N   tau(  13) = (   0.0000005   0.2886748   0.8985623  )
        14           N   tau(  14) = (   0.2500005   0.7216875   0.8985623  )
        15           N   tau(  15) = (  -0.2499995   0.7216875   0.8985623  )
        16           B   tau(  16) = (   0.0000000   0.4330127   0.8985623  )
        17           B   tau(  17) = (   0.1250000   0.6495191   0.8985623  )
        18           B   tau(  18) = (  -0.1250000   0.6495191   0.8985623  )
        19           B   tau(  19) = (   0.3750000   0.2165064   0.8985623  )
        20           B   tau(  20) = (   0.6250000   0.2165064   0.8985623  )
        21           B   tau(  21) = (   0.5000000   0.4330127   0.8985623  )
        22           N   tau(  22) = (   0.5000005   0.2886748   0.8985623  )
        23           B   tau(  23) = (  -0.2500000   0.4330127   0.8985623  )
        24           B   tau(  24) = (   0.2500000   0.4330127   0.8985623  )
        25           B   tau(  25) = (   0.5000000   0.0000000   0.8985623  )
        26           N   tau(  26) = (  -0.1249995   0.5051812   0.8985623  )
        27           N   tau(  27) = (   0.1250005   0.5051812   0.8985623  )
        28           N   tau(  28) = (   0.0000005   0.7216875   0.8985623  )
        29           N   tau(  29) = (   0.5000005   0.7216875   0.8985623  )
        30           N   tau(  30) = (   0.1250005   0.0721685   0.8985623  )
        31           N   tau(  31) = (   0.8750005   0.0721685   0.8985623  )
        32           B   tau(  32) = (   0.0000000   0.0000000   0.8985623  )
        33           Cr1 tau(  33) = (   0.4700000   0.0000000   1.2040735  )
        34           Cr2 tau(  34) = (   0.0300000   0.0000000   1.2040735  )

     number of k points=    15  Gaussian smearing, width (Ry)=  0.0000
                       cart. coord. in units 2pi/alat
        k(    1) = (   0.1666667   0.2886751   0.0000000), wk =   0.0740741
        k(    2) = (   0.1666667  -0.4811252   0.0000000), wk =   0.0740741
        k(    3) = (   0.1666667  -0.0962250   0.0000000), wk =   0.0740741
        k(    4) = (  -0.5000000  -0.8660254   0.0000000), wk =   0.0370370
        k(    5) = (  -0.1666667   0.2886751   0.0000000), wk =   0.0740741
        k(    6) = (   0.3333333   0.0000000   0.0000000), wk =   0.0740741
        k(    7) = (  -0.1666667  -0.4811252   0.0000000), wk =   0.0740741
        k(    8) = (   0.5000000  -0.0962250   0.0000000), wk =   0.0740741
        k(    9) = (  -0.3333333  -0.3849002   0.0000000), wk =   0.0740741
        k(   10) = (   0.5000000   0.0962250   0.0000000), wk =   0.0740741
        k(   11) = (  -0.3333333   0.3849002   0.0000000), wk =   0.0740741
        k(   12) = (  -0.1666667  -0.0962250   0.0000000), wk =   0.0740741
        k(   13) = (  -0.0000000  -0.1924501   0.0000000), wk =   0.0740741
        k(   14) = (   0.5000000  -0.8660254   0.0000000), wk =   0.0370370
        k(   15) = (  -1.0000000   0.0000000   0.0000000), wk =   0.0370370

     Dense  grid:  1741401 G-vectors     FFT dimensions: ( 135, 135, 240)

     Smooth grid:   474235 G-vectors     FFT dimensions: (  90,  90, 160)

     Estimated max dynamical RAM per process >     218.62 MB

     Estimated total dynamical RAM >      10.25 GB
     Generating pointlists ...
     new r_m :   0.0595 (alat units)  1.1269 (a.u.) for type    1
     new r_m :   0.0595 (alat units)  1.1269 (a.u.) for type    2
     new r_m :   0.1266 (alat units)  2.3968 (a.u.) for type    3
     new r_m :   0.1266 (alat units)  2.3968 (a.u.) for type    4

     Initial potential from superposition of free atoms

     starting charge  155.99382, renormalised to  156.00000

     negative rho (up, down):  6.529E-03 4.655E-04
     Starting wfcs are  148 randomized atomic wfcs
     Checking if some PAW data can be deallocated... 

     total cpu time spent up to now is       20.2 secs

     Self-consistent Calculation

     iteration #  1     ecut=    48.00 Ry     beta= 0.50
     Davidson diagonalization with overlap
     ethr =  1.00E-02,  avg # of iterations =  2.8

     negative rho (up, down):  4.713E-03 2.949E-03

     total cpu time spent up to now is       60.0 secs

     total energy              =   -1130.76539671 Ry
     estimated scf accuracy    <      11.37729314 Ry

     total magnetization       =    12.00 Bohr mag/cell
     absolute magnetization    =    12.15 Bohr mag/cell

     iteration #  2     ecut=    48.00 Ry     beta= 0.50
     Davidson diagonalization with overlap
     ethr =  7.29E-03,  avg # of iterations =  2.8

     negative rho (up, down):  6.816E-03 1.033E-02

     total cpu time spent up to now is       97.2 secs

     total energy              =   -1133.16343618 Ry
     estimated scf accuracy    <       3.01480398 Ry

     total magnetization       =    12.00 Bohr mag/cell
     absolute magnetization    =    12.01 Bohr mag/cell

     iteration #  3     ecut=    48.00 Ry     beta= 0.50
     Davidson diagonalization with overlap
     ethr =  1.93E-03,  avg # of iterations =  6.3

     negative rho (up, down):  3.790E-03 6.781E-03

     total cpu time spent up to now is      133.3 secs

     total energy              =   -1133.65500966 Ry
     estimated scf accuracy    <       0.57825098 Ry

     total magnetization       =    12.00 Bohr mag/cell
     absolute magnetization    =    12.05 Bohr mag/cell

     iteration #  4     ecut=    48.00 Ry     beta= 0.50
     Davidson diagonalization with overlap
     ethr =  3.71E-04,  avg # of iterations =  8.1

     negative rho (up, down):  7.055E-03 1.440E-02

     total cpu time spent up to now is      171.6 secs

     total energy              =   -1133.79023960 Ry
     estimated scf accuracy    <       0.28222659 Ry

     total magnetization       =    12.00 Bohr mag/cell
     absolute magnetization    =    12.00 Bohr mag/cell

     iteration #  5     ecut=    48.00 Ry     beta= 0.50
     Davidson diagonalization with overlap
     ethr =  1.81E-04,  avg # of iterations =  9.3

     negative rho (up, down):  4.503E-03 9.894E-03

     total cpu time spent up to now is      210.6 secs

     total energy              =   -1133.80846128 Ry
     estimated scf accuracy    <       0.01647012 Ry

     total magnetization       =    12.00 Bohr mag/cell
     absolute magnetization    =    12.01 Bohr mag/cell

     iteration #  6     ecut=    48.00 Ry     beta= 0.50
     Davidson diagonalization with overlap
     c_bands:  2 eigenvalues not converged
     ethr =  1.06E-05,  avg # of iterations = 11.9

     negative rho (up, down):  3.358E-03 7.809E-03

     total cpu time spent up to now is      266.8 secs

     total energy              =   -1133.81160542 Ry
     estimated scf accuracy    <       0.00564068 Ry

     total magnetization       =    12.00 Bohr mag/cell
     absolute magnetization    =    12.01 Bohr mag/cell

     iteration #  7     ecut=    48.00 Ry     beta= 0.50
     Davidson diagonalization with overlap
     ethr =  3.62E-06,  avg # of iterations =  8.4

     negative rho (up, down):  3.016E-03 7.497E-03

     total cpu time spent up to now is      308.3 secs

     total energy              =   -1133.81238834 Ry
     estimated scf accuracy    <       0.00054537 Ry

     total magnetization       =    12.00 Bohr mag/cell
     absolute magnetization    =    12.01 Bohr mag/cell

     iteration #  8     ecut=    48.00 Ry     beta= 0.50
     Davidson diagonalization with overlap
     ethr =  3.50E-07,  avg # of iterations =  5.1

     negative rho (up, down):  2.887E-03 7.332E-03

     total cpu time spent up to now is      343.1 secs

     total energy              =   -1133.81249972 Ry
     estimated scf accuracy    <       0.00004789 Ry

     total magnetization       =    12.00 Bohr mag/cell
     absolute magnetization    =    12.00 Bohr mag/cell

     iteration #  9     ecut=    48.00 Ry     beta= 0.50
     Davidson diagonalization with overlap
     ethr =  3.07E-08,  avg # of iterations =  4.6

     negative rho (up, down):  2.851E-03 7.300E-03

     total cpu time spent up to now is      384.4 secs

     total energy              =   -1133.81255143 Ry
     estimated scf accuracy    <       0.00002400 Ry

     total magnetization       =    12.00 Bohr mag/cell
     absolute magnetization    =    12.00 Bohr mag/cell

     iteration # 10     ecut=    48.00 Ry     beta= 0.50
     Davidson diagonalization with overlap
     ethr =  1.54E-08,  avg # of iterations =  2.0

     negative rho (up, down):  2.840E-03 7.299E-03

     total cpu time spent up to now is      415.4 secs

     total energy              =   -1133.81257028 Ry
     estimated scf accuracy    <       0.00000205 Ry

     total magnetization       =    12.00 Bohr mag/cell
     absolute magnetization    =    12.00 Bohr mag/cell

     iteration # 11     ecut=    48.00 Ry     beta= 0.50
     Davidson diagonalization with overlap
     ethr =  1.32E-09,  avg # of iterations =  4.5

     negative rho (up, down):  2.837E-03 7.300E-03

     total cpu time spent up to now is      457.3 secs

     total energy              =   -1133.81257806 Ry
     estimated scf accuracy    <       0.00000093 Ry

     total magnetization       =    12.00 Bohr mag/cell
     absolute magnetization    =    12.00 Bohr mag/cell

     iteration # 12     ecut=    48.00 Ry     beta= 0.50
     Davidson diagonalization with overlap
     ethr =  5.94E-10,  avg # of iterations =  2.2

     negative rho (up, down):  2.835E-03 7.305E-03
 
     Magnetic moment per site:
     atom:    1    charge:    0.8804    magn:    0.0004    constr:    0.0000
     atom:    2    charge:    0.8804    magn:    0.0006    constr:    0.0000
     atom:    3    charge:    0.8804    magn:    0.0009    constr:    0.0000
     atom:    4    charge:    0.8803    magn:    0.0007    constr:    0.0000
     atom:    5    charge:    0.8804    magn:    0.0007    constr:    0.0000
     atom:    6    charge:    0.8804    magn:    0.0005    constr:    0.0000
     atom:    7    charge:    2.8609    magn:    0.0003    constr:    0.0000
     atom:    8    charge:    2.8609    magn:    0.0003    constr:    0.0000
     atom:    9    charge:    2.8606    magn:    0.0096    constr:    0.0000
     atom:   10    charge:    2.8606    magn:    0.0065    constr:    0.0000
     atom:   11    charge:    2.8609    magn:    0.0006    constr:    0.0000
     atom:   12    charge:    2.8609    magn:    0.0004    constr:    0.0000
     atom:   13    charge:    2.8598    magn:    0.0011    constr:    0.0000
     atom:   14    charge:    2.8597    magn:    0.0016    constr:    0.0000
     atom:   15    charge:    2.8597    magn:    0.0037    constr:    0.0000
     atom:   16    charge:    0.8800    magn:    0.0002    constr:    0.0000
     atom:   17    charge:    0.8800    magn:    0.0006    constr:    0.0000
     atom:   18    charge:    0.8801    magn:    0.0005    constr:    0.0000
     atom:   19    charge:    0.8798    magn:    0.0007    constr:    0.0000
     atom:   20    charge:    0.8798    magn:    0.0004    constr:    0.0000
     atom:   21    charge:    0.8798    magn:    0.0002    constr:    0.0000
     atom:   22    charge:    2.8611    magn:    0.0011    constr:    0.0000
     atom:   23    charge:    0.8799    magn:    0.0000    constr:    0.0000
     atom:   24    charge:    0.8799    magn:    0.0001    constr:    0.0000
     atom:   25    charge:    0.8809    magn:    0.0004    constr:    0.0000
     atom:   26    charge:    2.8598    magn:    0.0004    constr:    0.0000
     atom:   27    charge:    2.8597    magn:    0.0003    constr:    0.0000
     atom:   28    charge:    2.8594    magn:    0.0076    constr:    0.0000
     atom:   29    charge:    2.8593    magn:    0.0076    constr:    0.0000
     atom:   30    charge:    2.8593    magn:    0.0096    constr:    0.0000
     atom:   31    charge:    2.8593    magn:    0.0065    constr:    0.0000
     atom:   32    charge:    0.8812    magn:    0.0004    constr:    0.0000
     atom:   33    charge:   12.7666    magn:    4.7615    constr:    0.0000
     atom:   34    charge:   12.7667    magn:    4.7616    constr:    0.0000

     total cpu time spent up to now is      490.1 secs

     End of self-consistent calculation

 ------ SPIN UP ------------


          k = 0.1667 0.2887 0.0000 ( 59267 PWs)   bands (ev):

   -72.4786 -72.4777 -43.9423 -43.9415 -43.9367 -43.9360 -43.9359 -43.9351
   -21.2609 -20.6793 -20.6652 -20.1196 -20.1093 -19.6064 -19.5923 -19.1138
   -18.7153 -18.7016 -18.4729 -18.4637 -18.2092 -18.1015 -18.0906 -17.8639
   -12.4979 -12.2223 -12.2133 -11.8359 -11.8301 -11.6717 -11.2091 -11.1994
   -10.4058 -10.3815 -10.1340 -10.1263  -9.6044  -9.6003  -8.8515  -8.8414
    -8.8357  -8.7837  -8.7713  -8.6103  -8.2108  -8.0647  -8.0350  -7.8428
    -7.8403  -7.4536  -7.4500  -7.3109  -7.2599  -7.2237  -7.2180  -6.9756
    -6.9675  -6.5816  -6.5537  -6.1680  -6.1659  -5.8872  -5.4324  -5.3106
    -5.2879  -5.2139  -4.9347  -4.9090  -4.5223  -4.3732  -4.3547  -3.9940
    -2.3480  -1.6002  -1.4472  -1.4320  -1.4222  -1.3830  -1.3708  -1.3686
    -1.3543  -1.3403  -1.3171  -1.2433   0.6195   0.7818   0.9745   1.2013
     1.2329   1.4377   1.4874   1.5544   1.5844   1.6232

          k = 0.1667-0.4811 0.0000 ( 59291 PWs)   bands (ev):

   -72.4786 -72.4777 -43.9423 -43.9415 -43.9367 -43.9360 -43.9359 -43.9352
   -21.1304 -20.9268 -20.7365 -20.1746 -19.8185 -19.4808 -19.3314 -19.1885
   -19.0288 -18.7930 -18.6545 -18.5590 -18.1626 -18.1046 -17.9361 -17.7382
   -12.3619 -12.1270 -12.0579 -11.9207 -11.6951 -11.6708 -11.5666 -10.9557
   -10.9038 -10.6376 -10.5372  -9.8739  -9.7072  -9.3500  -9.1247  -8.6827
    -8.6362  -8.5671  -8.4031  -8.3825  -8.1754  -8.1402  -8.0778  -8.0624
    -7.7015  -7.6369  -7.5083  -7.4874  -7.3717  -7.1848  -7.0815  -6.8757
    -6.6359  -6.4051  -6.1915  -6.1713  -5.9888  -5.9430  -5.7972  -5.7597
    -5.4653  -5.4146  -5.2223  -5.0574  -4.4588  -4.3643  -4.1042  -3.7815
    -2.3398  -1.6068  -1.4455  -1.4316  -1.4204  -1.3807  -1.3749  -1.3697
    -1.3544  -1.3400  -1.3170  -1.2435   0.6044   0.6453   1.0266   1.0472
     1.1731   1.2753   1.4057   1.7392   1.8324   1.9214

          k = 0.1667-0.0962 0.0000 ( 59226 PWs)   bands (ev):

   -72.4786 -72.4777 -43.9422 -43.9415 -43.9367 -43.9360 -43.9359 -43.9351
   -21.3274 -20.5494 -20.3588 -20.3542 -20.0027 -19.9943 -19.8201 -18.7437
   -18.7362 -18.3902 -18.3819 -18.3700 -18.2843 -18.2736 -18.0909 -18.0866
   -12.5234 -12.5138 -12.4218 -11.5944 -11.5902 -11.4420 -11.4321 -10.9396
   -10.9378  -9.9430  -9.9403  -9.6897  -9.3884  -9.3864  -9.2441  -9.2419
    -9.0559  -9.0543  -8.9384  -8.3375  -8.3353  -7.9149  -7.9124  -7.8975
    -7.8590  -7.7840  -7.6193  -7.6053  -7.1407  -7.1152  -6.9727  -6.9018
    -6.8988  -6.8664  -6.5447  -6.5420  -6.2711  -5.3577  -5.3395  -5.1570
    -5.0790  -4.8207  -4.8147  -4.7672  -4.6307  -4.6221  -4.3629  -4.3524
    -2.3564  -1.5935  -1.4490  -1.4324  -1.4241  -1.3872  -1.3695  -1.3648
    -1.3539  -1.3407  -1.3173  -1.2431   0.6357   0.9132   0.9545   1.2022
     1.2595   1.3325   1.4579   1.5428   1.5613   1.6852

          k =-0.5000-0.8660 0.0000 ( 59292 PWs)   bands (ev):

   -72.4786 -72.4777 -43.9423 -43.9415 -43.9367 -43.9360 -43.9359 -43.9352
   -21.0699 -21.0544 -20.4833 -20.4786 -19.4419 -19.4314 -19.4297 -19.4231
   -19.0109 -18.9986 -18.3455 -18.3396 -18.3300 -18.3179 -17.8078 -17.8030
   -12.0906 -12.0822 -12.0757 -12.0666 -11.8920 -11.8862 -11.3470 -11.3375
   -10.2500 -10.2452 -10.1495 -10.1455 -10.1431 -10.1400  -8.5998  -8.5725
    -8.5644  -8.5588  -8.5539  -8.5497  -7.8789  -7.8760  -7.8733  -7.8721
    -7.8361  -7.8335  -7.7890  -7.7784  -7.5080  -7.4955  -6.6257  -6.6206
    -6.3754  -6.3498  -6.3201  -6.3068  -6.2071  -6.1980  -5.7279  -5.7109
    -5.5633  -5.5515  -4.7424  -4.7370  -4.7127  -4.7043  -3.8982  -3.8869
    -2.2325  -1.7756  -1.4367  -1.4204  -1.4096  -1.3810  -1.3756  -1.3682
    -1.3620  -1.3524  -1.3354  -1.3229   0.9646   1.0104   1.0720   1.2084
     1.3112   1.3329   1.4353   1.5753   1.6342   1.6701

          k =-0.1667 0.2887 0.0000 ( 59267 PWs)   bands (ev):

   -72.4786 -72.4777 -43.9423 -43.9415 -43.9367 -43.9360 -43.9359 -43.9352
   -21.2609 -20.6792 -20.6652 -20.1196 -20.1093 -19.6064 -19.5923 -19.1138
   -18.7152 -18.7017 -18.4729 -18.4637 -18.2092 -18.1014 -18.0907 -17.8639
   -12.4979 -12.2223 -12.2133 -11.8359 -11.8301 -11.6718 -11.2090 -11.1994
   -10.4058 -10.3815 -10.1340 -10.1263  -9.6044  -9.6003  -8.8515  -8.8413
    -8.8356  -8.7838  -8.7714  -8.6103  -8.2108  -8.0646  -8.0351  -7.8428
    -7.8402  -7.4537  -7.4499  -7.3109  -7.2599  -7.2236  -7.2180  -6.9757
    -6.9676  -6.5815  -6.5537  -6.1680  -6.1659  -5.8872  -5.4325  -5.3106
    -5.2879  -5.2138  -4.9347  -4.9090  -4.5223  -4.3732  -4.3547  -3.9940
    -2.3480  -1.6002  -1.4472  -1.4320  -1.4222  -1.3830  -1.3709  -1.3685
    -1.3544  -1.3403  -1.3171  -1.2433   0.6195   0.7818   0.9745   1.2013
     1.2329   1.4377   1.4874   1.5543   1.5844   1.6232

          k = 0.3333 0.0000 0.0000 ( 59267 PWs)   bands (ev):

   -72.4786 -72.4777 -43.9423 -43.9415 -43.9367 -43.9360 -43.9359 -43.9351
   -21.2606 -20.6980 -20.6463 -20.1188 -20.1089 -19.6254 -19.5748 -19.1154
   -18.7273 -18.6855 -18.4740 -18.4641 -18.2054 -18.1201 -18.0775 -17.8632
   -12.4974 -12.2226 -12.2130 -11.8422 -11.8257 -11.6703 -11.2219 -11.1866
   -10.4051 -10.3814 -10.1440 -10.1169  -9.6091  -9.5946  -8.8592  -8.8374
    -8.8290  -8.8002  -8.7566  -8.6107  -8.2121  -8.1172  -7.9818  -7.8418
    -7.8397  -7.4586  -7.4442  -7.3092  -7.2583  -7.2307  -7.2109  -6.9765
    -6.9679  -6.6317  -6.5098  -6.1701  -6.1630  -5.8921  -5.4322  -5.3249
    -5.2659  -5.2142  -4.9333  -4.9125  -4.5142  -4.3954  -4.3422  -3.9938
    -2.2863  -1.6990  -1.4413  -1.4251  -1.4163  -1.3858  -1.3687  -1.3642
    -1.3626  -1.3477  -1.3269  -1.3063   0.9551   0.9977   1.0752   1.2029
     1.3086   1.3257   1.3924   1.5023   1.5452   1.5838

          k =-0.1667-0.4811 0.0000 ( 59291 PWs)   bands (ev):

   -72.4786 -72.4777 -43.9423 -43.9415 -43.9367 -43.9360 -43.9359 -43.9351
   -21.1304 -20.9268 -20.7365 -20.1746 -19.8185 -19.4808 -19.3314 -19.1885
   -19.0288 -18.7930 -18.6545 -18.5590 -18.1626 -18.1046 -17.9361 -17.7382
   -12.3619 -12.1270 -12.0579 -11.9207 -11.6951 -11.6707 -11.5666 -10.9557
   -10.9039 -10.6376 -10.5372  -9.8738  -9.7072  -9.3500  -9.1247  -8.6827
    -8.6361  -8.5671  -8.4031  -8.3825  -8.1753  -8.1402  -8.0779  -8.0624
    -7.7015  -7.6370  -7.5082  -7.4874  -7.3717  -7.1848  -7.0815  -6.8757
    -6.6359  -6.4051  -6.1915  -6.1714  -5.9888  -5.9429  -5.7972  -5.7597
    -5.4653  -5.4146  -5.2222  -5.0574  -4.4588  -4.3643  -4.1042  -3.7815
    -2.3398  -1.6068  -1.4455  -1.4316  -1.4204  -1.3808  -1.3748  -1.3698
    -1.3544  -1.3400  -1.3170  -1.2435   0.6044   0.6453   1.0266   1.0472
     1.1731   1.2753   1.4057   1.7391   1.8325   1.9203

          k = 0.5000-0.0962 0.0000 ( 59291 PWs)   bands (ev):

   -72.4786 -72.4777 -43.9423 -43.9415 -43.9367 -43.9360 -43.9359 -43.9351
   -21.1281 -20.9330 -20.7324 -20.1732 -19.8187 -19.4823 -19.3363 -19.1843
   -19.0298 -18.7936 -18.6460 -18.5641 -18.1527 -18.1183 -17.9336 -17.7379
   -12.3608 -12.1274 -12.0565 -11.9239 -11.7049 -11.6593 -11.5684 -10.9564
   -10.9017 -10.6360 -10.5393  -9.8721  -9.7076  -9.3508  -9.1242  -8.6723
    -8.6367  -8.5649  -8.4167  -8.4040  -8.1733  -8.1191  -8.0882  -8.0532
    -7.6984  -7.6373  -7.5075  -7.4883  -7.3663  -7.1861  -7.0822  -6.8764
    -6.6363  -6.4101  -6.2110  -6.1709  -5.9729  -5.9424  -5.7966  -5.7630
    -5.4662  -5.4125  -5.2017  -5.0716  -4.4383  -4.3900  -4.1005  -3.7817
    -2.2327  -1.7754  -1.4367  -1.4204  -1.4099  -1.3835  -1.3737  -1.3681
    -1.3620  -1.3524  -1.3354  -1.3229   0.9106   0.9922   1.1093   1.1469
     1.2782   1.3397   1.4051   1.4730   1.6201   1.7812

          k =-0.3333-0.3849 0.0000 ( 59291 PWs)   bands (ev):

   -72.4786 -72.4777 -43.9423 -43.9415 -43.9367 -43.9360 -43.9359 -43.9352
   -21.1289 -20.9308 -20.7340 -20.1730 -19.8202 -19.4808 -19.3322 -19.1872
   -19.0321 -18.7921 -18.6472 -18.5635 -18.1546 -18.1160 -17.9337 -17.7381
   -12.3614 -12.1256 -12.0584 -11.9228 -11.6957 -11.6695 -11.5678 -10.9562
   -10.9017 -10.6355 -10.5399  -9.8725  -9.7077  -9.3506  -9.1249  -8.6755
    -8.6356  -8.5671  -8.4073  -8.3998  -8.1747  -8.1266  -8.0784  -8.0639
    -7.6987  -7.6361  -7.5129  -7.4834  -7.3657  -7.1861  -7.0826  -6.8821
    -6.6344  -6.4046  -6.1960  -6.1728  -5.9836  -5.9417  -5.7967  -5.7716
    -5.4661  -5.4079  -5.2017  -5.0721  -4.4404  -4.3883  -4.1000  -3.7817
    -2.2756  -1.7088  -1.4401  -1.4246  -1.4143  -1.3818  -1.3739  -1.3661
    -1.3620  -1.3478  -1.3265  -1.3064   0.7974   0.9453   1.0544   1.0948
     1.2117   1.2855   1.3828   1.4938   1.7287   1.8494

          k = 0.5000 0.0962 0.0000 ( 59291 PWs)   bands (ev):

   -72.4786 -72.4777 -43.9423 -43.9415 -43.9367 -43.9360 -43.9359 -43.9351
   -21.1281 -20.9330 -20.7324 -20.1732 -19.8186 -19.4823 -19.3363 -19.1843
   -19.0298 -18.7936 -18.6460 -18.5641 -18.1527 -18.1183 -17.9336 -17.7379
   -12.3608 -12.1274 -12.0565 -11.9239 -11.7049 -11.6593 -11.5684 -10.9564
   -10.9017 -10.6360 -10.5394  -9.8721  -9.7077  -9.3508  -9.1241  -8.6723
    -8.6367  -8.5649  -8.4167  -8.4040  -8.1733  -8.1191  -8.0882  -8.0532
    -7.6984  -7.6373  -7.5076  -7.4883  -7.3663  -7.1862  -7.0822  -6.8764
    -6.6362  -6.4101  -6.2109  -6.1709  -5.9729  -5.9424  -5.7967  -5.7630
    -5.4662  -5.4125  -5.2017  -5.0716  -4.4383  -4.3900  -4.1006  -3.7818
    -2.2327  -1.7754  -1.4367  -1.4204  -1.4099  -1.3835  -1.3737  -1.3682
    -1.3620  -1.3524  -1.3354  -1.3229   0.9106   0.9922   1.1093   1.1469
     1.2782   1.3397   1.4051   1.4730   1.6201   1.7812

          k =-0.3333 0.3849 0.0000 ( 59291 PWs)   bands (ev):

   -72.4786 -72.4777 -43.9423 -43.9415 -43.9367 -43.9360 -43.9359 -43.9352
   -21.1289 -20.9308 -20.7340 -20.1730 -19.8202 -19.4808 -19.3322 -19.1872
   -19.0321 -18.7921 -18.6472 -18.5634 -18.1546 -18.1160 -17.9337 -17.7381
   -12.3614 -12.1256 -12.0584 -11.9228 -11.6956 -11.6695 -11.5677 -10.9562
   -10.9017 -10.6354 -10.5399  -9.8725  -9.7077  -9.3506  -9.1249  -8.6755
    -8.6356  -8.5670  -8.4074  -8.3998  -8.1747  -8.1266  -8.0784  -8.0640
    -7.6986  -7.6361  -7.5129  -7.4834  -7.3657  -7.1861  -7.0827  -6.8821
    -6.6345  -6.4046  -6.1960  -6.1729  -5.9836  -5.9418  -5.7967  -5.7716
    -5.4660  -5.4079  -5.2018  -5.0721  -4.4404  -4.3883  -4.1000  -3.7817
    -2.2756  -1.7088  -1.4401  -1.4246  -1.4143  -1.3818  -1.3740  -1.3660
    -1.3620  -1.3478  -1.3265  -1.3064   0.7974   0.9453   1.0544   1.0948
     1.2117   1.2855   1.3828   1.4938   1.7287   1.8494

          k =-0.1667-0.0962 0.0000 ( 59226 PWs)   bands (ev):

   -72.4786 -72.4777 -43.9422 -43.9415 -43.9367 -43.9360 -43.9359 -43.9351
   -21.3274 -20.5494 -20.3588 -20.3542 -20.0027 -19.9943 -19.8201 -18.7437
   -18.7361 -18.3902 -18.3819 -18.3699 -18.2843 -18.2736 -18.0909 -18.0866
   -12.5234 -12.5138 -12.4218 -11.5944 -11.5902 -11.4420 -11.4321 -10.9396
   -10.9378  -9.9430  -9.9403  -9.6896  -9.3884  -9.3864  -9.2441  -9.2419
    -9.0559  -9.0543  -8.9384  -8.3376  -8.3353  -7.9148  -7.9124  -7.8975
    -7.8590  -7.7840  -7.6193  -7.6053  -7.1407  -7.1152  -6.9728  -6.9018
    -6.8987  -6.8664  -6.5447  -6.5420  -6.2712  -5.3577  -5.3395  -5.1569
    -5.0791  -4.8207  -4.8146  -4.7672  -4.6307  -4.6221  -4.3629  -4.3524
    -2.3564  -1.5935  -1.4490  -1.4324  -1.4241  -1.3872  -1.3695  -1.3648
    -1.3539  -1.3407  -1.3173  -1.2431   0.6357   0.9132   0.9545   1.2022
     1.2595   1.3326   1.4579   1.5431   1.5614   1.6852

          k =-0.0000-0.1925 0.0000 ( 59226 PWs)   bands (ev):

   -72.4786 -72.4777 -43.9422 -43.9414 -43.9367 -43.9360 -43.9359 -43.9351
   -21.3275 -20.5453 -20.3686 -20.3516 -20.0022 -19.9885 -19.8231 -18.7456
   -18.7311 -18.4042 -18.3886 -18.3661 -18.2699 -18.2698 -18.0975 -18.0845
   -12.5239 -12.5138 -12.4214 -11.5983 -11.5874 -11.4405 -11.4314 -10.9425
   -10.9363  -9.9421  -9.9412  -9.6899  -9.3881  -9.3855  -9.2437  -9.2429
    -9.0564  -9.0538  -8.9393  -8.3368  -8.3355  -7.9139  -7.9128  -7.8770
    -7.8575  -7.7853  -7.6705  -7.5879  -7.1409  -7.0888  -6.9716  -6.9036
    -6.8982  -6.8801  -6.5463  -6.5397  -6.2717  -5.3706  -5.3172  -5.1573
    -5.0788  -4.8417  -4.8304  -4.7671  -4.6091  -4.6070  -4.3830  -4.3415
    -2.3809  -1.5580  -1.4517  -1.4354  -1.4264  -1.3860  -1.3710  -1.3662
    -1.3505  -1.3375  -1.3133  -1.1948   0.4709   0.8396   0.9082   1.1719
     1.2483   1.3703   1.4707   1.5980   1.6437   1.6505

          k = 0.5000-0.8660 0.0000 ( 59292 PWs)   bands (ev):

   -72.4786 -72.4777 -43.9423 -43.9415 -43.9367 -43.9360 -43.9359 -43.9352
   -21.0699 -21.0544 -20.4833 -20.4786 -19.4419 -19.4314 -19.4297 -19.4231
   -19.0108 -18.9986 -18.3454 -18.3396 -18.3301 -18.3179 -17.8078 -17.8030
   -12.0905 -12.0822 -12.0758 -12.0666 -11.8920 -11.8862 -11.3469 -11.3376
   -10.2501 -10.2452 -10.1495 -10.1455 -10.1431 -10.1400  -8.5998  -8.5725
    -8.5643  -8.5588  -8.5540  -8.5497  -7.8789  -7.8759  -7.8733  -7.8721
    -7.8361  -7.8336  -7.7890  -7.7784  -7.5081  -7.4956  -6.6256  -6.6205
    -6.3754  -6.3498  -6.3201  -6.3068  -6.2070  -6.1980  -5.7279  -5.7110
    -5.5633  -5.5516  -4.7424  -4.7369  -4.7127  -4.7043  -3.8982  -3.8869
    -2.2325  -1.7756  -1.4367  -1.4204  -1.4096  -1.3811  -1.3755  -1.3683
    -1.3620  -1.3524  -1.3354  -1.3229   0.9646   1.0105   1.0720   1.2084
     1.3112   1.3328   1.4350   1.5753   1.6342   1.6689

          k =-1.0000 0.0000 0.0000 ( 59292 PWs)   bands (ev):

   -72.4786 -72.4777 -43.9423 -43.9415 -43.9367 -43.9360 -43.9359 -43.9352
   -21.0871 -21.0349 -20.4910 -20.4747 -19.4384 -19.4365 -19.4327 -19.4135
   -19.0258 -18.9853 -18.3803 -18.3504 -18.3065 -18.2961 -17.8126 -17.7998
   -12.1149 -12.0931 -12.0542 -12.0501 -11.8955 -11.8830 -11.3621 -11.3236
   -10.2543 -10.2539 -10.1469 -10.1455 -10.1377 -10.1366  -8.6466  -8.5852
    -8.5710  -8.5415  -8.5321  -8.5074  -7.8890  -7.8821  -7.8756  -7.8724
    -7.8416  -7.8272  -7.8129  -7.7556  -7.5249  -7.4804  -6.6266  -6.6175
    -6.3904  -6.3325  -6.3227  -6.2853  -6.2205  -6.1876  -5.7532  -5.6954
    -5.5783  -5.5367  -4.7970  -4.7763  -4.6654  -4.6602  -3.9097  -3.8773
    -2.3656  -1.5690  -1.4475  -1.4347  -1.4226  -1.3788  -1.3767  -1.3714
    -1.3510  -1.3365  -1.3130  -1.1955   0.4511   0.5801   1.0509   1.0554
     1.1222   1.5309   1.5824   1.5951   1.6252   1.8612

 ------ SPIN DOWN ----------


          k = 0.1667 0.2887 0.0000 ( 59267 PWs)   bands (ev):

   -68.1077 -68.1069 -39.6152 -39.6142 -39.5989 -39.5978 -39.5942 -39.5932
   -21.2533 -20.6712 -20.6585 -20.1112 -20.1030 -19.5984 -19.5858 -19.1062
   -18.7059 -18.6943 -18.4645 -18.4572 -18.2000 -18.0941 -18.0847 -17.8563
   -12.4927 -12.2161 -12.2090 -11.8310 -11.8258 -11.6675 -11.2036 -11.1945
   -10.4002 -10.3762 -10.1282 -10.1213  -9.5991  -9.5954  -8.8352  -8.8304
    -8.8230  -8.7786  -8.7671  -8.6055  -8.2063  -8.0358  -8.0130  -7.8378
    -7.8359  -7.4473  -7.4442  -7.2772  -7.2453  -7.2188  -7.2136  -6.9704
    -6.9636  -6.5563  -6.5344  -6.1630  -6.1610  -5.8635  -5.4268  -5.2818
    -5.2664  -5.2089  -4.9088  -4.8928  -4.4963  -4.3517  -4.3389  -3.9737
    -0.2771   0.6682   1.0447   1.1994   1.3594   1.4043   1.4496   1.5324
     1.5620   1.8104   1.9052   2.1077   2.1891   2.2540   2.3055   2.3671
     2.4361   2.4707   2.5049   2.5999   2.6174   2.6473

          k = 0.1667-0.4811 0.0000 ( 59291 PWs)   bands (ev):

   -68.1077 -68.1069 -39.6152 -39.6142 -39.5989 -39.5978 -39.5942 -39.5932
   -21.1221 -20.9204 -20.7290 -20.1670 -19.8112 -19.4734 -19.3241 -19.1808
   -19.0214 -18.7857 -18.6444 -18.5531 -18.1516 -18.1006 -17.9284 -17.7304
   -12.3566 -12.1218 -12.0533 -11.9160 -11.6908 -11.6658 -11.5618 -10.9504
   -10.8981 -10.6316 -10.5325  -9.8679  -9.7022  -9.3445  -9.1196  -8.6498
    -8.6312  -8.5612  -8.3985  -8.3654  -8.1703  -8.1129  -8.0729  -8.0581
    -7.6963  -7.6322  -7.5032  -7.4833  -7.3452  -7.1794  -7.0768  -6.8525
    -6.6300  -6.3819  -6.1697  -6.1660  -5.9647  -5.9371  -5.7921  -5.7381
    -5.4604  -5.3913  -5.1902  -5.0429  -4.4275  -4.3543  -4.0831  -3.7616
    -0.2395   0.6361   1.0149   1.0931   1.1686   1.2966   1.3386   1.7579
     1.8601   1.8862   2.0449   2.1042   2.2275   2.2762   2.2923   2.3489
     2.4344   2.4681   2.5110   2.5151   2.5439   2.6367

          k = 0.1667-0.0962 0.0000 ( 59226 PWs)   bands (ev):

   -68.1077 -68.1068 -39.6152 -39.6142 -39.5989 -39.5978 -39.5942 -39.5932
   -21.3199 -20.5410 -20.3517 -20.3477 -19.9941 -19.9872 -19.8138 -18.7347
   -18.7284 -18.3812 -18.3748 -18.3622 -18.2754 -18.2671 -18.0840 -18.0802
   -12.5172 -12.5097 -12.4168 -11.5896 -11.5859 -11.4359 -11.4280 -10.9344
   -10.9329  -9.9376  -9.9352  -9.6840  -9.3831  -9.3813  -9.2383  -9.2365
    -9.0508  -9.0495  -8.9118  -8.3316  -8.3296  -7.9098  -7.9080  -7.8662
    -7.8508  -7.7795  -7.5960  -7.5870  -7.1101  -7.0935  -6.9678  -6.8970
    -6.8944  -6.8503  -6.5398  -6.5373  -6.2664  -5.3290  -5.3165  -5.1517
    -5.0738  -4.7970  -4.7915  -4.7461  -4.6083  -4.6012  -4.3426  -4.3347
    -0.3119   0.7018   1.0421   1.1331   1.2485   1.4549   1.5083   1.5654
     1.8305   1.9042   1.9935   2.0277   2.0606   2.1359   2.2946   2.3718
     2.4271   2.4403   2.4872   2.5608   2.6252   2.6459

          k =-0.5000-0.8660 0.0000 ( 59292 PWs)   bands (ev):

   -68.1077 -68.1069 -39.6152 -39.6142 -39.5989 -39.5978 -39.5942 -39.5932
   -21.0615 -21.0476 -20.4761 -20.4718 -19.4323 -19.4234 -19.4225 -19.4168
   -19.0029 -18.9922 -18.3358 -18.3316 -18.3221 -18.3124 -17.8000 -17.7957
   -12.0840 -12.0775 -12.0702 -12.0628 -11.8874 -11.8821 -11.3416 -11.3326
   -10.2443 -10.2401 -10.1433 -10.1398 -10.1382 -10.1354  -8.5678  -8.5611
    -8.5589  -8.5493  -8.5458  -8.5404  -7.8731  -7.8711  -7.8687  -7.8675
    -7.8303  -7.8279  -7.7661  -7.7576  -7.5031  -7.4916  -6.6202  -6.6157
    -6.3362  -6.3192  -6.3026  -6.2925  -6.2015  -6.1930  -5.7052  -5.6921
    -5.5577  -5.5470  -4.7170  -4.7120  -4.6933  -4.6862  -3.8769  -3.8681
    -0.1041   0.2774   1.0297   1.0530   1.4404   1.4759   1.4918   1.5631
     1.7626   1.7758   2.0498   2.0703   2.1902   2.2805   2.3714   2.3816
     2.4203   2.4593   2.4943   2.5144   2.5572   2.6618

          k =-0.1667 0.2887 0.0000 ( 59267 PWs)   bands (ev):

   -68.1077 -68.1069 -39.6152 -39.6142 -39.5989 -39.5978 -39.5942 -39.5932
   -21.2533 -20.6712 -20.6586 -20.1112 -20.1030 -19.5984 -19.5858 -19.1062
   -18.7059 -18.6944 -18.4645 -18.4572 -18.2000 -18.0941 -18.0847 -17.8563
   -12.4927 -12.2161 -12.2090 -11.8310 -11.8258 -11.6675 -11.2036 -11.1945
   -10.4002 -10.3762 -10.1282 -10.1213  -9.5990  -9.5954  -8.8352  -8.8304
    -8.8230  -8.7786  -8.7672  -8.6055  -8.2063  -8.0358  -8.0130  -7.8378
    -7.8359  -7.4473  -7.4442  -7.2772  -7.2453  -7.2187  -7.2136  -6.9704
    -6.9636  -6.5563  -6.5344  -6.1629  -6.1610  -5.8635  -5.4269  -5.2818
    -5.2665  -5.2088  -4.9088  -4.8928  -4.4964  -4.3517  -4.3389  -3.9737
    -0.2771   0.6682   1.0448   1.1994   1.3593   1.4043   1.4496   1.5324
     1.5619   1.8104   1.9052   2.1077   2.1891   2.2542   2.3056   2.3670
     2.4361   2.4706   2.5050   2.6000   2.6175   2.6474

          k = 0.3333 0.0000 0.0000 ( 59267 PWs)   bands (ev):

   -68.1077 -68.1069 -39.6152 -39.6142 -39.5989 -39.5978 -39.5942 -39.5932
   -21.2531 -20.6865 -20.6432 -20.1105 -20.1028 -19.6137 -19.5716 -19.1073
   -18.7154 -18.6822 -18.4650 -18.4576 -18.1975 -18.1081 -18.0742 -17.8559
   -12.4924 -12.2164 -12.2087 -11.8366 -11.8216 -11.6663 -11.2149 -11.1834
   -10.3996 -10.3761 -10.1362 -10.1136  -9.6029  -9.5908  -8.8395  -8.8312
    -8.8162  -8.7925  -8.7544  -8.6059  -8.2073  -8.0728  -7.9758  -7.8371
    -7.8354  -7.4512  -7.4399  -7.2762  -7.2442  -7.2247  -7.2076  -6.9710
    -6.9639  -6.5907  -6.5034  -6.1647  -6.1588  -5.8660  -5.4267  -5.2929
    -5.2513  -5.2091  -4.9083  -4.8944  -4.4923  -4.3672  -4.3285  -3.9734
    -0.2150   0.4519   1.0509   1.1868   1.3516   1.4862   1.4896   1.5243
     1.5871   1.8217   2.0816   2.1531   2.2246   2.2400   2.2674   2.3999
     2.4326   2.4631   2.5332   2.5560   2.5954   2.6025

          k =-0.1667-0.4811 0.0000 ( 59291 PWs)   bands (ev):

   -68.1077 -68.1069 -39.6152 -39.6142 -39.5989 -39.5978 -39.5942 -39.5932
   -21.1221 -20.9204 -20.7290 -20.1670 -19.8112 -19.4734 -19.3240 -19.1808
   -19.0214 -18.7857 -18.6444 -18.5531 -18.1516 -18.1006 -17.9284 -17.7304
   -12.3567 -12.1217 -12.0533 -11.9159 -11.6908 -11.6657 -11.5618 -10.9504
   -10.8981 -10.6316 -10.5325  -9.8679  -9.7022  -9.3445  -9.1196  -8.6498
    -8.6311  -8.5612  -8.3984  -8.3654  -8.1702  -8.1130  -8.0730  -8.0581
    -7.6963  -7.6322  -7.5031  -7.4833  -7.3452  -7.1794  -7.0768  -6.8525
    -6.6300  -6.3819  -6.1697  -6.1661  -5.9647  -5.9370  -5.7921  -5.7381
    -5.4605  -5.3913  -5.1902  -5.0430  -4.4274  -4.3543  -4.0831  -3.7616
    -0.2395   0.6361   1.0150   1.0931   1.1686   1.2967   1.3386   1.7579
     1.8602   1.8862   2.0449   2.1042   2.2275   2.2762   2.2923   2.3489
     2.4343   2.4682   2.5113   2.5149   2.5441   2.6371

          k = 0.5000-0.0962 0.0000 ( 59291 PWs)   bands (ev):

   -68.1077 -68.1069 -39.6152 -39.6142 -39.5989 -39.5978 -39.5942 -39.5932
   -21.1205 -20.9248 -20.7261 -20.1660 -19.8113 -19.4744 -19.3274 -19.1780
   -19.0220 -18.7861 -18.6387 -18.5566 -18.1445 -18.1100 -17.9268 -17.7303
   -12.3558 -12.1221 -12.0521 -11.9185 -11.6988 -11.6564 -11.5631 -10.9509
   -10.8965 -10.6304 -10.5341  -9.8666  -9.7026  -9.3451  -9.1193  -8.6444
    -8.6313  -8.5597  -8.4014  -8.3817  -8.1689  -8.1019  -8.0815  -8.0504
    -7.6939  -7.6325  -7.5026  -7.4840  -7.3422  -7.1803  -7.0773  -6.8528
    -6.6302  -6.3846  -6.1791  -6.1662  -5.9565  -5.9368  -5.7916  -5.7396
    -5.4611  -5.3906  -5.1793  -5.0504  -4.4156  -4.3687  -4.0813  -3.7617
    -0.1064   0.2835   0.9999   1.1063   1.1642   1.3021   1.6194   1.7541
     1.7859   2.0278   2.0508   2.1495   2.2029   2.2746   2.3260   2.3653
     2.4294   2.4728   2.5164   2.5345   2.5770   2.6300

          k =-0.3333-0.3849 0.0000 ( 59291 PWs)   bands (ev):

   -68.1077 -68.1069 -39.6152 -39.6142 -39.5989 -39.5978 -39.5942 -39.5932
   -21.1210 -20.9233 -20.7272 -20.1659 -19.8124 -19.4734 -19.3246 -19.1799
   -19.0236 -18.7851 -18.6395 -18.5562 -18.1458 -18.1086 -17.9268 -17.7304
   -12.3563 -12.1207 -12.0536 -11.9177 -11.6913 -11.6647 -11.5626 -10.9507
   -10.8965 -10.6300 -10.5345  -9.8669  -9.7026  -9.3449  -9.1198  -8.6458
    -8.6307  -8.5611  -8.3995  -8.3759  -8.1699  -8.1060  -8.0733  -8.0593
    -7.6941  -7.6315  -7.5068  -7.4801  -7.3419  -7.1803  -7.0776  -6.8559
    -6.6290  -6.3817  -6.1715  -6.1671  -5.9621  -5.9362  -5.7918  -5.7440
    -5.4610  -5.3883  -5.1795  -5.0505  -4.4167  -4.3677  -4.0811  -3.7617
    -0.1639   0.4007   1.0121   1.0655   1.2056   1.2929   1.4964   1.7692
     1.9226   1.9654   2.0422   2.0700   2.1817   2.2963   2.3192   2.3975
     2.4196   2.4608   2.4869   2.5455   2.5775   2.6189

          k = 0.5000 0.0962 0.0000 ( 59291 PWs)   bands (ev):

   -68.1077 -68.1069 -39.6152 -39.6142 -39.5989 -39.5978 -39.5942 -39.5932
   -21.1205 -20.9248 -20.7261 -20.1660 -19.8113 -19.4744 -19.3274 -19.1779
   -19.0220 -18.7861 -18.6387 -18.5566 -18.1445 -18.1101 -17.9267 -17.7302
   -12.3558 -12.1221 -12.0521 -11.9185 -11.6988 -11.6564 -11.5631 -10.9509
   -10.8965 -10.6304 -10.5341  -9.8666  -9.7026  -9.3451  -9.1192  -8.6444
    -8.6313  -8.5597  -8.4014  -8.3817  -8.1689  -8.1019  -8.0815  -8.0504
    -7.6939  -7.6325  -7.5026  -7.4840  -7.3422  -7.1803  -7.0772  -6.8528
    -6.6302  -6.3846  -6.1791  -6.1661  -5.9565  -5.9368  -5.7917  -5.7396
    -5.4612  -5.3906  -5.1793  -5.0504  -4.4156  -4.3687  -4.0813  -3.7617
    -0.1064   0.2835   0.9999   1.1063   1.1642   1.3021   1.6194   1.7541
     1.7859   2.0279   2.0508   2.1495   2.2030   2.2746   2.3260   2.3653
     2.4293   2.4729   2.5166   2.5346   2.5775   2.6286

          k =-0.3333 0.3849 0.0000 ( 59291 PWs)   bands (ev):

   -68.1077 -68.1069 -39.6152 -39.6142 -39.5989 -39.5978 -39.5942 -39.5932
   -21.1210 -20.9233 -20.7272 -20.1659 -19.8124 -19.4734 -19.3246 -19.1799
   -19.0236 -18.7851 -18.6395 -18.5562 -18.1458 -18.1086 -17.9268 -17.7304
   -12.3563 -12.1207 -12.0536 -11.9177 -11.6913 -11.6647 -11.5626 -10.9508
   -10.8965 -10.6300 -10.5345  -9.8669  -9.7026  -9.3449  -9.1198  -8.6458
    -8.6307  -8.5611  -8.3995  -8.3759  -8.1700  -8.1060  -8.0733  -8.0593
    -7.6941  -7.6315  -7.5069  -7.4801  -7.3419  -7.1803  -7.0777  -6.8559
    -6.6290  -6.3817  -6.1715  -6.1672  -5.9621  -5.9363  -5.7918  -5.7440
    -5.4609  -5.3883  -5.1795  -5.0505  -4.4167  -4.3677  -4.0810  -3.7617
    -0.1639   0.4007   1.0120   1.0656   1.2056   1.2929   1.4963   1.7692
     1.9226   1.9654   2.0422   2.0701   2.1817   2.2963   2.3192   2.3975
     2.4194   2.4607   2.4861   2.5449   2.5761   2.6190

          k =-0.1667-0.0962 0.0000 ( 59226 PWs)   bands (ev):

   -68.1077 -68.1068 -39.6152 -39.6142 -39.5989 -39.5978 -39.5942 -39.5932
   -21.3199 -20.5410 -20.3517 -20.3477 -19.9941 -19.9872 -19.8138 -18.7347
   -18.7284 -18.3812 -18.3748 -18.3622 -18.2754 -18.2671 -18.0840 -18.0802
   -12.5172 -12.5097 -12.4168 -11.5896 -11.5858 -11.4360 -11.4280 -10.9344
   -10.9329  -9.9376  -9.9352  -9.6840  -9.3830  -9.3813  -9.2383  -9.2365
    -9.0508  -9.0495  -8.9118  -8.3317  -8.3296  -7.9098  -7.9079  -7.8662
    -7.8507  -7.7796  -7.5959  -7.5870  -7.1101  -7.0935  -6.9678  -6.8970
    -6.8944  -6.8503  -6.5397  -6.5373  -6.2665  -5.3290  -5.3165  -5.1516
    -5.0739  -4.7970  -4.7915  -4.7461  -4.6082  -4.6012  -4.3427  -4.3347
    -0.3119   0.7018   1.0421   1.1331   1.2486   1.4549   1.5083   1.5654
     1.8305   1.9042   1.9935   2.0277   2.0606   2.1358   2.2946   2.3718
     2.4270   2.4403   2.4872   2.5609   2.6249   2.6463

          k =-0.0000-0.1925 0.0000 ( 59226 PWs)   bands (ev):

   -68.1077 -68.1068 -39.6152 -39.6142 -39.5989 -39.5978 -39.5942 -39.5932
   -21.3199 -20.5381 -20.3592 -20.3453 -19.9941 -19.9828 -19.8159 -18.7363
   -18.7248 -18.3907 -18.3788 -18.3600 -18.2654 -18.2649 -18.0887 -18.0784
   -12.5177 -12.5097 -12.4164 -11.5927 -11.5836 -11.4348 -11.4275 -10.9366
   -10.9317  -9.9369  -9.9360  -9.6842  -9.3828  -9.3807  -9.2376  -9.2376
    -9.0514  -9.0491  -8.9122  -8.3313  -8.3295  -7.9091  -7.9082  -7.8594
    -7.8462  -7.7805  -7.6257  -7.5750  -7.1128  -7.0769  -6.9669  -6.8985
    -6.8939  -6.8574  -6.5410  -6.5357  -6.2668  -5.3376  -5.3034  -5.1519
    -5.0737  -4.8081  -4.7988  -4.7461  -4.5969  -4.5942  -4.3541  -4.3276
    -0.3339   0.8370   1.0287   1.1513   1.2453   1.4197   1.4775   1.5804
     1.7518   1.8555   1.9200   1.9895   2.0194   2.2011   2.3289   2.3411
     2.4037   2.4701   2.5045   2.6305   2.6370   2.6723

          k = 0.5000-0.8660 0.0000 ( 59292 PWs)   bands (ev):

   -68.1077 -68.1069 -39.6152 -39.6142 -39.5989 -39.5978 -39.5942 -39.5932
   -21.0614 -21.0476 -20.4761 -20.4718 -19.4323 -19.4234 -19.4225 -19.4168
   -19.0029 -18.9923 -18.3358 -18.3315 -18.3222 -18.3124 -17.8000 -17.7957
   -12.0839 -12.0774 -12.0703 -12.0629 -11.8874 -11.8821 -11.3415 -11.3326
   -10.2443 -10.2402 -10.1433 -10.1398 -10.1382 -10.1354  -8.5678  -8.5610
    -8.5588  -8.5494  -8.5458  -8.5404  -7.8731  -7.8710  -7.8686  -7.8675
    -7.8304  -7.8279  -7.7661  -7.7576  -7.5032  -7.4916  -6.6201  -6.6157
    -6.3362  -6.3192  -6.3026  -6.2925  -6.2014  -6.1930  -5.7052  -5.6921
    -5.5578  -5.5471  -4.7170  -4.7120  -4.6933  -4.6862  -3.8769  -3.8681
    -0.1041   0.2774   1.0298   1.0531   1.4404   1.4758   1.4918   1.5630
     1.7627   1.7758   2.0498   2.0702   2.1902   2.2805   2.3716   2.3818
     2.4199   2.4595   2.4939   2.5146   2.5574   2.6617

          k =-1.0000 0.0000 0.0000 ( 59292 PWs)   bands (ev):

   -68.1077 -68.1069 -39.6152 -39.6142 -39.5989 -39.5979 -39.5942 -39.5932
   -21.0756 -21.0318 -20.4820 -20.4686 -19.4299 -19.4276 -19.4243 -19.4098
   -19.0143 -18.9819 -18.3636 -18.3393 -18.3044 -18.2949 -17.8034 -17.7933
   -12.1048 -12.0873 -12.0518 -12.0484 -11.8902 -11.8796 -11.3547 -11.3205
   -10.2473 -10.2468 -10.1415 -10.1405 -10.1333 -10.1329  -8.6018  -8.5769
    -8.5649  -8.5389  -8.5306  -8.5017  -7.8813  -7.8755  -7.8687  -7.8676
    -7.8253  -7.8238  -7.7870  -7.7431  -7.5175  -7.4785  -6.6207  -6.6137
    -6.3463  -6.3114  -6.3043  -6.2783  -6.2127  -6.1838  -5.7214  -5.6802
    -5.5703  -5.5347  -4.7543  -4.7371  -4.6614  -4.6571  -3.8837  -3.8624
    -0.2675   0.7702   1.0430   1.1113   1.2469   1.2950   1.5054   1.5908
     1.6228   1.7019   1.8866   2.1435   2.1817   2.2778   2.3129   2.3745
     2.3977   2.4985   2.5486   2.5662   2.6365   2.6392

     the Fermi energy is    -0.8504 ev

!    total energy              =   -1133.81259061 Ry

     total all-electron energy =     -6753.488294 Ry
     estimated scf accuracy    <       0.00000006 Ry
     smearing contrib. (-TS)   =      -0.00000000 Ry
     internal energy E=F+TS    =   -1133.81259061 Ry

     The total energy is F=E-TS. E is the sum of the following terms:
     one-electron contribution =   -3916.50197652 Ry
     hartree contribution      =    1986.88276121 Ry
     xc contribution           =    -186.20338098 Ry
     ewald contribution        =    1341.37705379 Ry
     DFT-D3 Dispersion         =      -0.13898986 Ry
     one-center paw contrib.   =    -359.22805825 Ry

     total magnetization       =    12.00 Bohr mag/cell
     absolute magnetization    =    12.00 Bohr mag/cell

     convergence has been achieved in  12 iterations

     Writing output data file ./mytmp/Crdimer0.22-0.0.save/
 
     init_run     :     18.56s CPU     19.83s WALL (       1 calls)
     electrons    :    441.26s CPU    470.15s WALL (       1 calls)

     Called by init_run:
     wfcinit      :     13.74s CPU     14.63s WALL (       1 calls)
     potinit      :      1.53s CPU      1.60s WALL (       1 calls)
     hinit0       :      1.53s CPU      1.62s WALL (       1 calls)

     Called by electrons:
     c_bands      :    357.99s CPU    379.73s WALL (      12 calls)
     sum_band     :     64.18s CPU     68.55s WALL (      12 calls)
     v_of_rho     :      3.98s CPU      4.28s WALL (      13 calls)
     newd         :      8.33s CPU     10.83s WALL (      13 calls)
     PAW_pot      :      6.38s CPU      6.48s WALL (      13 calls)
     mix_rho      :      0.82s CPU      0.84s WALL (      12 calls)

     Called by c_bands:
     init_us_2    :      4.35s CPU      4.37s WALL (     750 calls)
     cegterg      :    347.41s CPU    369.09s WALL (     360 calls)

     Called by *egterg:
     cdiaghg      :     22.20s CPU     35.38s WALL (    2399 calls)
     h_psi        :    223.40s CPU    231.87s WALL (    2429 calls)
     s_psi        :     24.70s CPU     24.75s WALL (    2429 calls)
     g_psi        :      0.69s CPU      0.71s WALL (    2039 calls)

     Called by h_psi:
     h_psi:calbec :     25.51s CPU     26.04s WALL (    2429 calls)
     vloc_psi     :    170.72s CPU    178.58s WALL (    2429 calls)
     add_vuspsi   :     25.21s CPU     25.29s WALL (    2429 calls)

     General routines
     calbec       :     33.46s CPU     34.18s WALL (    2789 calls)
     fft          :      3.52s CPU      4.10s WALL (     319 calls)
     ffts         :      0.10s CPU      0.10s WALL (      50 calls)
     fftw         :    174.38s CPU    182.32s WALL (  228098 calls)
     interpolate  :      0.36s CPU      0.38s WALL (      26 calls)
 
     Parallel routines
     fft_scatt_xy :     27.41s CPU     28.44s WALL (  228467 calls)
     fft_scatt_yz :     68.18s CPU     72.28s WALL (  228467 calls)
 
     PWSCF        :   7m41.84s CPU   8m14.09s WALL

 
   This run was terminated on:  21: 3:38  29Mar2021            

=------------------------------------------------------------------------------=
   JOB DONE.
=------------------------------------------------------------------------------=
