
     Program PWSCF v.6.7MaX starts on 29Mar2021 at 22:34:50 

     This program is part of the open-source Quantum ESPRESSO suite
     for quantum simulation of materials; please cite
         "P. Giannozzi et al., J. Phys.:Condens. Matter 21 395502 (2009);
         "P. Giannozzi et al., J. Phys.:Condens. Matter 29 465901 (2017);
          URL http://www.quantum-espresso.org", 
     in publications or presentations arising from this work. More details at
     http://www.quantum-espresso.org/quote

     Parallel version (MPI), running on    48 processors

     MPI processes distributed on     1 nodes
     R & G space division:  proc/nbgrp/npool/nimage =      48
     Reading input from Crdimer0.26-0.0.scf.in

     Current dimensions of program PWSCF are:
     Max number of different atomic species (ntypx) = 10
     Max number of k-points (npk) =  40000
     Max angular momentum in pseudopotentials (lmaxx) =  3
     file N.pbe-n-kjpaw_psl.1.0.0.UPF: wavefunction(s)  2S renormalized
     file Cr.pbe-spn-kjpaw_psl.1.0.0.UPF: wavefunction(s)  3S 3P 3D renormalized
     file Cr.pbe-spn-kjpaw_psl.1.0.0.UPF: wavefunction(s)  3S 3P 3D renormalized

     --------------------------------------------
     Parameters for DFT-D3 Dispersion Correction:
     --------------------------------------------
       Reference C6 values for interpolation: 

         atom   Coordination number   C6
         B          0.000           214.36
         B          0.971           150.74
         B          1.944           106.23
         B          2.913            62.89
         B          4.586            56.06
         N          0.000            50.54
         N          0.994            44.25
         N          2.014            39.35
         N          2.990            31.16
         Cr1        0.000          1381.48
         Cr1        1.827           571.38
         Cr1       10.619           306.69
         Cr2        0.000          1381.48
         Cr2        1.827           571.38
         Cr2       10.619           306.69

       Values used:

         atom   Coordination number  R0_AB[au]  C6      C8
         B          3.338            3.039     62.89   2505.94
         B          3.338            3.039     62.89   2505.94
         B          3.339            3.039     62.89   2505.90
         B          3.341            3.039     62.89   2505.86
         B          3.338            3.039     62.89   2505.95
         B          3.338            3.039     62.89   2505.95
         N          3.134            2.478     31.22    688.69
         N          3.134            2.478     31.22    688.70
         N          3.143            2.478     31.21    688.62
         N          3.145            2.478     31.21    688.60
         N          3.134            2.478     31.22    688.69
         N          3.134            2.478     31.22    688.70
         N          3.135            2.478     31.22    688.69
         N          3.136            2.478     31.22    688.68
         N          3.136            2.478     31.22    688.68
         B          3.335            3.039     62.89   2506.00
         B          3.338            3.039     62.89   2505.94
         B          3.338            3.039     62.89   2505.95
         B          3.338            3.039     62.89   2505.95
         B          3.338            3.039     62.89   2505.94
         B          3.335            3.039     62.89   2506.00
         N          3.135            2.478     31.22    688.69
         B          3.335            3.039     62.89   2506.01
         B          3.335            3.039     62.89   2506.01
         B          3.384            3.039     62.86   2504.60
         N          3.134            2.478     31.22    688.70
         N          3.134            2.478     31.22    688.70
         N          3.144            2.478     31.21    688.61
         N          3.144            2.478     31.21    688.61
         N          3.143            2.478     31.21    688.62
         N          3.145            2.478     31.21    688.60
         B          3.384            3.039     62.86   2504.60
         Cr1        0.108            3.252   1381.48 127494.70
         Cr2        0.108            3.252   1381.48 127494.70

         Molecular C6 ( Ry / a.u.^6 ) =     79164.05


     Subspace diagonalization in iterative solution of the eigenvalue problem:
     one sub-group per band group will be used
     scalapack distributed-memory algorithm (size of sub-group:  6*  6 procs)

 
     Parallelization info
     --------------------
     sticks:   dense  smooth     PW     G-vecs:    dense   smooth      PW
     Min         235      98     26                36277     9874    1408
     Max         236      99     27                36282     9883    1425
     Sum       11311    4741   1285              1741401   474235   68095
 


     bravais-lattice index     =            4
     lattice parameter (alat)  =      18.9275  a.u.
     unit-cell volume          =   10553.3021 (a.u.)^3
     number of atoms/cell      =           34
     number of atomic types    =            4
     number of electrons       =       156.00
     number of Kohn-Sham states=           94
     kinetic-energy cutoff     =      48.0000  Ry
     charge density cutoff     =     457.0000  Ry
     scf convergence threshold =      1.0E-07
     mixing beta               =       0.5000
     number of iterations used =            8  plain     mixing
     Exchange-correlation= SLA  PW   PBX  PBC
                           (   1   4   3   4   0   0   0)

     celldm(1)=  18.927497  celldm(2)=   0.000000  celldm(3)=   1.797125
     celldm(4)=   0.000000  celldm(5)=   0.000000  celldm(6)=   0.000000

     crystal axes: (cart. coord. in units of alat)
               a(1) = (   1.000000   0.000000   0.000000 )  
               a(2) = (  -0.500000   0.866025   0.000000 )  
               a(3) = (   0.000000   0.000000   1.797125 )  

     reciprocal axes: (cart. coord. in units 2 pi/alat)
               b(1) = (  1.000000  0.577350  0.000000 )  
               b(2) = (  0.000000  1.154701  0.000000 )  
               b(3) = (  0.000000  0.000000  0.556444 )  


     PseudoPot. # 1 for B  read from file:
     /home/sf05/q-e-qe-6.7MaX-Release/pseudo/B.pbe-n-kjpaw_psl.1.0.0.UPF
     MD5 check sum: d9c678ba5d3b2fd7b74e61139c9288d8
     Pseudo is Projector augmented-wave + core cor, Zval =  3.0
     Generated using "atomic" code by A. Dal Corso  v.5.1.2
     Shape of augmentation charge: PSQ
     Using radial grid of 1059 points,  4 beta functions with: 
                l(1) =   0
                l(2) =   0
                l(3) =   1
                l(4) =   1
     Q(r) pseudized with 0 coefficients 


     PseudoPot. # 2 for N  read from file:
     /home/sf05/q-e-qe-6.7MaX-Release/pseudo/N.pbe-n-kjpaw_psl.1.0.0.UPF
     MD5 check sum: e0e4e94a9c4025c5b51bd7d8793849bd
     Pseudo is Projector augmented-wave + core cor, Zval =  5.0
     Generated using "atomic" code by A. Dal Corso  v.5.1.2
     Shape of augmentation charge: PSQ
     Using radial grid of 1085 points,  4 beta functions with: 
                l(1) =   0
                l(2) =   0
                l(3) =   1
                l(4) =   1
     Q(r) pseudized with 0 coefficients 


     PseudoPot. # 3 for Cr read from file:
     /home/sf05/q-e-qe-6.7MaX-Release/pseudo/Cr.pbe-spn-kjpaw_psl.1.0.0.UPF
     MD5 check sum: 198f1a2427a48552563eee314eba32ba
     Pseudo is Projector augmented-wave + core cor, Zval = 14.0
     Generated using &quot;atomic&quot; code by A. Dal Corso  v.6.3
     Shape of augmentation charge: PSQ
     Using radial grid of 1183 points,  6 beta functions with: 
                l(1) =   0
                l(2) =   0
                l(3) =   1
                l(4) =   1
                l(5) =   2
                l(6) =   2
     Q(r) pseudized with 0 coefficients 


     PseudoPot. # 4 for Cr read from file:
     /home/sf05/q-e-qe-6.7MaX-Release/pseudo/Cr.pbe-spn-kjpaw_psl.1.0.0.UPF
     MD5 check sum: 198f1a2427a48552563eee314eba32ba
     Pseudo is Projector augmented-wave + core cor, Zval = 14.0
     Generated using &quot;atomic&quot; code by A. Dal Corso  v.6.3
     Shape of augmentation charge: PSQ
     Using radial grid of 1183 points,  6 beta functions with: 
                l(1) =   0
                l(2) =   0
                l(3) =   1
                l(4) =   1
                l(5) =   2
                l(6) =   2
     Q(r) pseudized with 0 coefficients 


     atomic species   valence    mass     pseudopotential
        B              3.00    10.81100     B ( 1.00)
        N              5.00    14.00674     N ( 1.00)
        Cr1           14.00    51.99610     Cr( 1.00)
        Cr2           14.00    51.99610     Cr( 1.00)

     Starting magnetic structure 
     atomic species   magnetization
        B            0.000
        N            0.000
        Cr1          1.000
        Cr2          1.000

     No symmetry found



   Cartesian axes

     site n.     atom                  positions (alat units)
         1           B   tau(   1) = (  -0.1250000   0.2165064   0.8985623  )
         2           B   tau(   2) = (   0.3750000   0.6495191   0.8985623  )
         3           B   tau(   3) = (   0.2500000   0.0000000   0.8985623  )
         4           B   tau(   4) = (   0.7500000   0.0000000   0.8985623  )
         5           B   tau(   5) = (   0.1250000   0.2165064   0.8985623  )
         6           B   tau(   6) = (  -0.3750000   0.6495191   0.8985623  )
         7           N   tau(   7) = (   0.7500005   0.2886748   0.8985623  )
         8           N   tau(   8) = (   0.3750005   0.5051812   0.8985623  )
         9           N   tau(   9) = (   0.3750005   0.0721685   0.8985623  )
        10           N   tau(  10) = (   0.6250005   0.0721685   0.8985623  )
        11           N   tau(  11) = (   0.2500005   0.2886748   0.8985623  )
        12           N   tau(  12) = (   0.6250005   0.5051812   0.8985623  )
        13           N   tau(  13) = (   0.0000005   0.2886748   0.8985623  )
        14           N   tau(  14) = (   0.2500005   0.7216875   0.8985623  )
        15           N   tau(  15) = (  -0.2499995   0.7216875   0.8985623  )
        16           B   tau(  16) = (   0.0000000   0.4330127   0.8985623  )
        17           B   tau(  17) = (   0.1250000   0.6495191   0.8985623  )
        18           B   tau(  18) = (  -0.1250000   0.6495191   0.8985623  )
        19           B   tau(  19) = (   0.3750000   0.2165064   0.8985623  )
        20           B   tau(  20) = (   0.6250000   0.2165064   0.8985623  )
        21           B   tau(  21) = (   0.5000000   0.4330127   0.8985623  )
        22           N   tau(  22) = (   0.5000005   0.2886748   0.8985623  )
        23           B   tau(  23) = (  -0.2500000   0.4330127   0.8985623  )
        24           B   tau(  24) = (   0.2500000   0.4330127   0.8985623  )
        25           B   tau(  25) = (   0.5000000   0.0000000   0.8985623  )
        26           N   tau(  26) = (  -0.1249995   0.5051812   0.8985623  )
        27           N   tau(  27) = (   0.1250005   0.5051812   0.8985623  )
        28           N   tau(  28) = (   0.0000005   0.7216875   0.8985623  )
        29           N   tau(  29) = (   0.5000005   0.7216875   0.8985623  )
        30           N   tau(  30) = (   0.1250005   0.0721685   0.8985623  )
        31           N   tau(  31) = (   0.8750005   0.0721685   0.8985623  )
        32           B   tau(  32) = (   0.0000000   0.0000000   0.8985623  )
        33           Cr1 tau(  33) = (   0.5100000   0.0000000   1.2040735  )
        34           Cr2 tau(  34) = (  -0.0100000   0.0000000   1.2040735  )

     number of k points=    15  Gaussian smearing, width (Ry)=  0.0000
                       cart. coord. in units 2pi/alat
        k(    1) = (   0.1666667   0.2886751   0.0000000), wk =   0.0740741
        k(    2) = (   0.1666667  -0.4811252   0.0000000), wk =   0.0740741
        k(    3) = (   0.1666667  -0.0962250   0.0000000), wk =   0.0740741
        k(    4) = (  -0.5000000  -0.8660254   0.0000000), wk =   0.0370370
        k(    5) = (  -0.1666667   0.2886751   0.0000000), wk =   0.0740741
        k(    6) = (   0.3333333   0.0000000   0.0000000), wk =   0.0740741
        k(    7) = (  -0.1666667  -0.4811252   0.0000000), wk =   0.0740741
        k(    8) = (   0.5000000  -0.0962250   0.0000000), wk =   0.0740741
        k(    9) = (  -0.3333333  -0.3849002   0.0000000), wk =   0.0740741
        k(   10) = (   0.5000000   0.0962250   0.0000000), wk =   0.0740741
        k(   11) = (  -0.3333333   0.3849002   0.0000000), wk =   0.0740741
        k(   12) = (  -0.1666667  -0.0962250   0.0000000), wk =   0.0740741
        k(   13) = (  -0.0000000  -0.1924501   0.0000000), wk =   0.0740741
        k(   14) = (   0.5000000  -0.8660254   0.0000000), wk =   0.0370370
        k(   15) = (  -1.0000000   0.0000000   0.0000000), wk =   0.0370370

     Dense  grid:  1741401 G-vectors     FFT dimensions: ( 135, 135, 240)

     Smooth grid:   474235 G-vectors     FFT dimensions: (  90,  90, 160)

     Estimated max dynamical RAM per process >     218.62 MB

     Estimated total dynamical RAM >      10.25 GB
     Generating pointlists ...
     new r_m :   0.0595 (alat units)  1.1269 (a.u.) for type    1
     new r_m :   0.0595 (alat units)  1.1269 (a.u.) for type    2
     new r_m :   0.1261 (alat units)  2.3866 (a.u.) for type    3
     new r_m :   0.1261 (alat units)  2.3866 (a.u.) for type    4

     Initial potential from superposition of free atoms

     starting charge  155.99382, renormalised to  156.00000

     negative rho (up, down):  6.501E-03 4.655E-04
     Starting wfcs are  148 randomized atomic wfcs
     Checking if some PAW data can be deallocated... 

     total cpu time spent up to now is       19.8 secs

     Self-consistent Calculation

     iteration #  1     ecut=    48.00 Ry     beta= 0.50
     Davidson diagonalization with overlap
     ethr =  1.00E-02,  avg # of iterations =  2.8

     negative rho (up, down):  4.690E-03 2.937E-03

     total cpu time spent up to now is       59.6 secs

     total energy              =   -1130.76488911 Ry
     estimated scf accuracy    <      11.37847683 Ry

     total magnetization       =    12.00 Bohr mag/cell
     absolute magnetization    =    12.15 Bohr mag/cell

     iteration #  2     ecut=    48.00 Ry     beta= 0.50
     Davidson diagonalization with overlap
     ethr =  7.29E-03,  avg # of iterations =  2.8

     negative rho (up, down):  6.788E-03 1.039E-02

     total cpu time spent up to now is       96.7 secs

     total energy              =   -1133.16090763 Ry
     estimated scf accuracy    <       3.02102701 Ry

     total magnetization       =    12.00 Bohr mag/cell
     absolute magnetization    =    12.02 Bohr mag/cell

     iteration #  3     ecut=    48.00 Ry     beta= 0.50
     Davidson diagonalization with overlap
     ethr =  1.94E-03,  avg # of iterations =  6.4

     negative rho (up, down):  3.747E-03 6.753E-03

     total cpu time spent up to now is      132.9 secs

     total energy              =   -1133.65274286 Ry
     estimated scf accuracy    <       0.57965519 Ry

     total magnetization       =    12.00 Bohr mag/cell
     absolute magnetization    =    12.05 Bohr mag/cell

     iteration #  4     ecut=    48.00 Ry     beta= 0.50
     Davidson diagonalization with overlap
     ethr =  3.72E-04,  avg # of iterations =  8.4

     negative rho (up, down):  7.006E-03 1.449E-02

     total cpu time spent up to now is      171.4 secs

     total energy              =   -1133.78951735 Ry
     estimated scf accuracy    <       0.27963845 Ry

     total magnetization       =    12.00 Bohr mag/cell
     absolute magnetization    =    12.00 Bohr mag/cell

     iteration #  5     ecut=    48.00 Ry     beta= 0.50
     Davidson diagonalization with overlap
     c_bands:  1 eigenvalues not converged
     ethr =  1.79E-04,  avg # of iterations =  9.7

     negative rho (up, down):  4.473E-03 9.987E-03

     total cpu time spent up to now is      210.8 secs

     total energy              =   -1133.80698771 Ry
     estimated scf accuracy    <       0.01644147 Ry

     total magnetization       =    12.00 Bohr mag/cell
     absolute magnetization    =    12.01 Bohr mag/cell

     iteration #  6     ecut=    48.00 Ry     beta= 0.50
     Davidson diagonalization with overlap
     c_bands:  1 eigenvalues not converged
     c_bands:  1 eigenvalues not converged
     ethr =  1.05E-05,  avg # of iterations = 12.3

     negative rho (up, down):  3.331E-03 7.822E-03

     total cpu time spent up to now is      267.5 secs

     total energy              =   -1133.81013112 Ry
     estimated scf accuracy    <       0.00540295 Ry

     total magnetization       =    12.00 Bohr mag/cell
     absolute magnetization    =    12.01 Bohr mag/cell

     iteration #  7     ecut=    48.00 Ry     beta= 0.50
     Davidson diagonalization with overlap
     ethr =  3.46E-06,  avg # of iterations =  8.9

     negative rho (up, down):  2.996E-03 7.501E-03

     total cpu time spent up to now is      309.2 secs

     total energy              =   -1133.81085830 Ry
     estimated scf accuracy    <       0.00055708 Ry

     total magnetization       =    12.00 Bohr mag/cell
     absolute magnetization    =    12.01 Bohr mag/cell

     iteration #  8     ecut=    48.00 Ry     beta= 0.50
     Davidson diagonalization with overlap
     ethr =  3.57E-07,  avg # of iterations =  4.8

     negative rho (up, down):  2.873E-03 7.334E-03

     total cpu time spent up to now is      343.9 secs

     total energy              =   -1133.81099681 Ry
     estimated scf accuracy    <       0.00004212 Ry

     total magnetization       =    12.00 Bohr mag/cell
     absolute magnetization    =    12.01 Bohr mag/cell

     iteration #  9     ecut=    48.00 Ry     beta= 0.50
     Davidson diagonalization with overlap
     ethr =  2.70E-08,  avg # of iterations =  4.5

     negative rho (up, down):  2.838E-03 7.299E-03

     total cpu time spent up to now is      384.5 secs

     total energy              =   -1133.81105591 Ry
     estimated scf accuracy    <       0.00002512 Ry

     total magnetization       =    12.00 Bohr mag/cell
     absolute magnetization    =    12.00 Bohr mag/cell

     iteration # 10     ecut=    48.00 Ry     beta= 0.50
     Davidson diagonalization with overlap
     ethr =  1.61E-08,  avg # of iterations =  2.0

     negative rho (up, down):  2.827E-03 7.295E-03

     total cpu time spent up to now is      417.2 secs

     total energy              =   -1133.81107745 Ry
     estimated scf accuracy    <       0.00000129 Ry

     total magnetization       =    12.00 Bohr mag/cell
     absolute magnetization    =    12.00 Bohr mag/cell

     iteration # 11     ecut=    48.00 Ry     beta= 0.50
     Davidson diagonalization with overlap
     ethr =  8.30E-10,  avg # of iterations =  4.7

     negative rho (up, down):  2.824E-03 7.296E-03

     total cpu time spent up to now is      460.3 secs

     total energy              =   -1133.81108641 Ry
     estimated scf accuracy    <       0.00000060 Ry

     total magnetization       =    12.00 Bohr mag/cell
     absolute magnetization    =    12.00 Bohr mag/cell

     iteration # 12     ecut=    48.00 Ry     beta= 0.50
     Davidson diagonalization with overlap
     ethr =  3.86E-10,  avg # of iterations =  2.2

     negative rho (up, down):  2.822E-03 7.300E-03
 
     Magnetic moment per site:
     atom:    1    charge:    0.8804    magn:    0.0006    constr:    0.0000
     atom:    2    charge:    0.8804    magn:    0.0005    constr:    0.0000
     atom:    3    charge:    0.8803    magn:    0.0008    constr:    0.0000
     atom:    4    charge:    0.8804    magn:    0.0009    constr:    0.0000
     atom:    5    charge:    0.8804    magn:    0.0005    constr:    0.0000
     atom:    6    charge:    0.8804    magn:    0.0006    constr:    0.0000
     atom:    7    charge:    2.8609    magn:    0.0005    constr:    0.0000
     atom:    8    charge:    2.8609    magn:    0.0004    constr:    0.0000
     atom:    9    charge:    2.8606    magn:    0.0076    constr:    0.0000
     atom:   10    charge:    2.8606    magn:    0.0086    constr:    0.0000
     atom:   11    charge:    2.8609    magn:    0.0004    constr:    0.0000
     atom:   12    charge:    2.8609    magn:    0.0003    constr:    0.0000
     atom:   13    charge:    2.8598    magn:    0.0011    constr:    0.0000
     atom:   14    charge:    2.8597    magn:    0.0028    constr:    0.0000
     atom:   15    charge:    2.8597    magn:    0.0021    constr:    0.0000
     atom:   16    charge:    0.8800    magn:    0.0002    constr:    0.0000
     atom:   17    charge:    0.8801    magn:    0.0005    constr:    0.0000
     atom:   18    charge:    0.8800    magn:    0.0006    constr:    0.0000
     atom:   19    charge:    0.8798    magn:    0.0005    constr:    0.0000
     atom:   20    charge:    0.8798    magn:    0.0006    constr:    0.0000
     atom:   21    charge:    0.8798    magn:    0.0002    constr:    0.0000
     atom:   22    charge:    2.8611    magn:    0.0011    constr:    0.0000
     atom:   23    charge:    0.8799    magn:    0.0001    constr:    0.0000
     atom:   24    charge:    0.8799    magn:    0.0000    constr:    0.0000
     atom:   25    charge:    0.8809    magn:    0.0004    constr:    0.0000
     atom:   26    charge:    2.8598    magn:    0.0003    constr:    0.0000
     atom:   27    charge:    2.8598    magn:    0.0004    constr:    0.0000
     atom:   28    charge:    2.8594    magn:    0.0078    constr:    0.0000
     atom:   29    charge:    2.8593    magn:    0.0078    constr:    0.0000
     atom:   30    charge:    2.8593    magn:    0.0076    constr:    0.0000
     atom:   31    charge:    2.8593    magn:    0.0086    constr:    0.0000
     atom:   32    charge:    0.8812    magn:    0.0004    constr:    0.0000
     atom:   33    charge:   12.7566    magn:    4.7528    constr:    0.0000
     atom:   34    charge:   12.7568    magn:    4.7529    constr:    0.0000

     total cpu time spent up to now is      492.5 secs

     End of self-consistent calculation

 ------ SPIN UP ------------


          k = 0.1667 0.2887 0.0000 ( 59267 PWs)   bands (ev):

   -72.4644 -72.4633 -43.9274 -43.9264 -43.9237 -43.9227 -43.9226 -43.9216
   -21.2596 -20.6737 -20.6685 -20.1188 -20.1079 -19.6006 -19.5959 -19.1125
   -18.7100 -18.7043 -18.4721 -18.4624 -18.2076 -18.0986 -18.0920 -17.8630
   -12.4968 -12.2213 -12.2118 -11.8333 -11.8305 -11.6707 -11.2049 -11.2015
   -10.4048 -10.3805 -10.1304 -10.1278  -9.6019  -9.6005  -8.8497  -8.8406
    -8.8344  -8.7786  -8.7743  -8.6092  -8.2097  -8.0569  -8.0408  -7.8418
    -7.8391  -7.4515  -7.4499  -7.3113  -7.2574  -7.2207  -7.2188  -6.9748
    -6.9663  -6.5720  -6.5613  -6.1663  -6.1654  -5.8859  -5.4314  -5.3047
    -5.2911  -5.2129  -4.9348  -4.9073  -4.5205  -4.3706  -4.3566  -3.9931
    -2.2629  -1.6295  -1.4198  -1.4059  -1.3903  -1.3767  -1.3638  -1.3619
    -1.3461  -1.3416  -1.3169  -1.2673   0.6450   0.7957   0.9714   1.2140
     1.2241   1.4352   1.4899   1.5575   1.5769   1.5940

          k = 0.1667-0.4811 0.0000 ( 59291 PWs)   bands (ev):

   -72.4644 -72.4633 -43.9275 -43.9264 -43.9237 -43.9226 -43.9226 -43.9216
   -21.1289 -20.9254 -20.7357 -20.1735 -19.8173 -19.4796 -19.3299 -19.1877
   -19.0274 -18.7921 -18.6533 -18.5580 -18.1612 -18.1036 -17.9355 -17.7372
   -12.3607 -12.1257 -12.0569 -11.9196 -11.6924 -11.6712 -11.5656 -10.9546
   -10.9029 -10.6367 -10.5362  -9.8728  -9.7061  -9.3489  -9.1235  -8.6808
    -8.6348  -8.5662  -8.4019  -8.3808  -8.1745  -8.1401  -8.0753  -8.0626
    -7.7004  -7.6359  -7.5067  -7.4869  -7.3709  -7.1837  -7.0804  -6.8745
    -6.6348  -6.4040  -6.1892  -6.1702  -5.9888  -5.9420  -5.7961  -5.7580
    -5.4642  -5.4144  -5.2213  -5.0565  -4.4574  -4.3634  -4.1039  -3.7805
    -2.2533  -1.6369  -1.4179  -1.4054  -1.3887  -1.3738  -1.3705  -1.3615
    -1.3458  -1.3413  -1.3169  -1.2672   0.6279   0.6543   1.0249   1.0415
     1.1728   1.2806   1.4134   1.7140   1.8251   1.9233

          k = 0.1667-0.0962 0.0000 ( 59226 PWs)   bands (ev):

   -72.4644 -72.4633 -43.9274 -43.9264 -43.9237 -43.9226 -43.9226 -43.9216
   -21.3261 -20.5481 -20.3568 -20.3539 -19.9997 -19.9949 -19.8192 -18.7401
   -18.7370 -18.3883 -18.3791 -18.3700 -18.2840 -18.2732 -18.0894 -18.0865
   -12.5225 -12.5124 -12.4207 -11.5922 -11.5902 -11.4412 -11.4307 -10.9379
   -10.9373  -9.9410  -9.9401  -9.6886  -9.3873  -9.3852  -9.2428  -9.2412
    -9.0548  -9.0532  -8.9368  -8.3358  -8.3349  -7.9136  -7.9111  -7.8965
    -7.8580  -7.7828  -7.6176  -7.6052  -7.1349  -7.1187  -6.9716  -6.9000
    -6.8985  -6.8658  -6.5427  -6.5418  -6.2700  -5.3514  -5.3432  -5.1559
    -5.0779  -4.8179  -4.8116  -4.7678  -4.6309  -4.6220  -4.3603  -4.3539
    -2.2726  -1.6221  -1.4217  -1.4065  -1.3926  -1.3797  -1.3629  -1.3575
    -1.3464  -1.3420  -1.3169  -1.2674   0.6628   0.9144   0.9731   1.2128
     1.2636   1.3476   1.4148   1.5248   1.5605   1.6870

          k =-0.5000-0.8660 0.0000 ( 59292 PWs)   bands (ev):

   -72.4644 -72.4633 -43.9274 -43.9264 -43.9238 -43.9227 -43.9226 -43.9216
   -21.0635 -21.0583 -20.4806 -20.4790 -19.4375 -19.4339 -19.4261 -19.4238
   -19.0058 -19.0017 -18.3394 -18.3344 -18.3310 -18.3238 -17.8052 -17.8036
   -12.0847 -12.0798 -12.0755 -12.0704 -11.8890 -11.8870 -11.3428 -11.3397
   -10.2470 -10.2453 -10.1473 -10.1459 -10.1413 -10.1402  -8.5876  -8.5777
    -8.5598  -8.5571  -8.5564  -8.5532  -7.8754  -7.8740  -7.8729  -7.8722
    -7.8349  -7.8340  -7.7845  -7.7810  -7.5028  -7.4986  -6.6228  -6.6211
    -6.3668  -6.3580  -6.3136  -6.3091  -6.2030  -6.2001  -5.7215  -5.7158
    -5.5582  -5.5543  -4.7317  -4.7249  -4.7218  -4.7140  -3.8936  -3.8897
    -2.0557  -1.9079  -1.3970  -1.3847  -1.3766  -1.3728  -1.3716  -1.3628
    -1.3602  -1.3534  -1.3483  -1.3398   1.0258   1.0395   1.0742   1.1388
     1.3447   1.3778   1.4739   1.5513   1.6437   1.6648

          k =-0.1667 0.2887 0.0000 ( 59267 PWs)   bands (ev):

   -72.4644 -72.4633 -43.9274 -43.9264 -43.9237 -43.9226 -43.9226 -43.9216
   -21.2596 -20.6737 -20.6684 -20.1188 -20.1079 -19.6007 -19.5958 -19.1125
   -18.7100 -18.7043 -18.4722 -18.4624 -18.2076 -18.0986 -18.0920 -17.8630
   -12.4967 -12.2214 -12.2118 -11.8333 -11.8306 -11.6707 -11.2049 -11.2014
   -10.4048 -10.3804 -10.1305 -10.1278  -9.6020  -9.6005  -8.8497  -8.8406
    -8.8344  -8.7786  -8.7743  -8.6092  -8.2097  -8.0569  -8.0408  -7.8418
    -7.8390  -7.4515  -7.4499  -7.3113  -7.2574  -7.2207  -7.2188  -6.9749
    -6.9663  -6.5721  -6.5612  -6.1663  -6.1654  -5.8859  -5.4315  -5.3047
    -5.2911  -5.2128  -4.9348  -4.9073  -4.5205  -4.3706  -4.3566  -3.9931
    -2.2629  -1.6295  -1.4198  -1.4059  -1.3903  -1.3767  -1.3638  -1.3619
    -1.3461  -1.3416  -1.3169  -1.2673   0.6450   0.7957   0.9714   1.2140
     1.2241   1.4352   1.4899   1.5574   1.5770   1.5939

          k = 0.3333 0.0000 0.0000 ( 59267 PWs)   bands (ev):

   -72.4644 -72.4633 -43.9274 -43.9264 -43.9237 -43.9226 -43.9226 -43.9216
   -21.2592 -20.6966 -20.6454 -20.1174 -20.1080 -19.6242 -19.5739 -19.1142
   -18.7256 -18.6845 -18.4728 -18.4633 -18.2035 -18.1199 -18.0766 -17.8623
   -12.4962 -12.2214 -12.2118 -11.8411 -11.8248 -11.6692 -11.2207 -11.1857
   -10.4040 -10.3803 -10.1429 -10.1160  -9.6079  -9.5935  -8.8577  -8.8360
    -8.8277  -8.7991  -8.7557  -8.6096  -8.2111  -8.1162  -7.9809  -7.8405
    -7.8386  -7.4574  -7.4431  -7.3078  -7.2574  -7.2296  -7.2098  -6.9754
    -6.9670  -6.6307  -6.5090  -6.1690  -6.1619  -5.8910  -5.4311  -5.3228
    -5.2651  -5.2131  -4.9322  -4.9120  -4.5116  -4.3961  -4.3415  -3.9930
    -2.1719  -1.7658  -1.4091  -1.3956  -1.3864  -1.3725  -1.3613  -1.3582
    -1.3565  -1.3506  -1.3318  -1.3283   0.9796   1.0687   1.1034   1.1757
     1.2977   1.3238   1.3721   1.4992   1.5357   1.5754

          k =-0.1667-0.4811 0.0000 ( 59291 PWs)   bands (ev):

   -72.4644 -72.4633 -43.9275 -43.9264 -43.9237 -43.9226 -43.9226 -43.9216
   -21.1289 -20.9254 -20.7357 -20.1735 -19.8173 -19.4796 -19.3298 -19.1877
   -19.0274 -18.7921 -18.6533 -18.5580 -18.1612 -18.1036 -17.9355 -17.7372
   -12.3607 -12.1257 -12.0569 -11.9195 -11.6924 -11.6712 -11.5656 -10.9546
   -10.9029 -10.6367 -10.5362  -9.8727  -9.7061  -9.3489  -9.1236  -8.6808
    -8.6348  -8.5662  -8.4019  -8.3808  -8.1745  -8.1401  -8.0754  -8.0626
    -7.7004  -7.6359  -7.5066  -7.4869  -7.3709  -7.1837  -7.0803  -6.8745
    -6.6348  -6.4040  -6.1893  -6.1702  -5.9888  -5.9420  -5.7961  -5.7580
    -5.4643  -5.4144  -5.2213  -5.0565  -4.4574  -4.3634  -4.1039  -3.7805
    -2.2533  -1.6369  -1.4179  -1.4054  -1.3887  -1.3738  -1.3705  -1.3615
    -1.3458  -1.3413  -1.3169  -1.2672   0.6279   0.6543   1.0249   1.0416
     1.1728   1.2806   1.4135   1.7140   1.8251   1.9230

          k = 0.5000-0.0962 0.0000 ( 59291 PWs)   bands (ev):

   -72.4644 -72.4633 -43.9275 -43.9264 -43.9237 -43.9226 -43.9226 -43.9216
   -21.1265 -20.9321 -20.7314 -20.1720 -19.8175 -19.4810 -19.3352 -19.1833
   -19.0284 -18.7927 -18.6444 -18.5635 -18.1501 -18.1188 -17.9327 -17.7370
   -12.3595 -12.1261 -12.0553 -11.9229 -11.7036 -11.6584 -11.5674 -10.9554
   -10.9005 -10.6349 -10.5385  -9.8710  -9.7066  -9.3497  -9.1230  -8.6699
    -8.6353  -8.5638  -8.4165  -8.4030  -8.1723  -8.1182  -8.0870  -8.0522
    -7.6971  -7.6363  -7.5058  -7.4879  -7.3653  -7.1851  -7.0811  -6.8753
    -6.6353  -6.4083  -6.2105  -6.1698  -5.9721  -5.9414  -5.7955  -5.7614
    -5.4652  -5.4119  -5.1997  -5.0715  -4.4344  -4.3918  -4.0998  -3.7809
    -2.0562  -1.9073  -1.3970  -1.3850  -1.3796  -1.3724  -1.3697  -1.3628
    -1.3600  -1.3533  -1.3483  -1.3399   0.9482   1.0052   1.1151   1.1413
     1.2952   1.3379   1.4575   1.5155   1.5937   1.7233

          k =-0.3333-0.3849 0.0000 ( 59291 PWs)   bands (ev):

   -72.4644 -72.4633 -43.9275 -43.9264 -43.9237 -43.9227 -43.9226 -43.9216
   -21.1273 -20.9297 -20.7330 -20.1719 -19.8190 -19.4796 -19.3309 -19.1862
   -19.0310 -18.7911 -18.6457 -18.5628 -18.1523 -18.1161 -17.9328 -17.7371
   -12.3603 -12.1241 -12.0574 -11.9217 -11.6933 -11.6696 -11.5668 -10.9551
   -10.9006 -10.6343 -10.5390  -9.8713  -9.7067  -9.3496  -9.1237  -8.6732
    -8.6341  -8.5661  -8.4066  -8.3987  -8.1738  -8.1259  -8.0755  -8.0647
    -7.6974  -7.6349  -7.5117  -7.4825  -7.3648  -7.1851  -7.0816  -6.8809
    -6.6333  -6.4032  -6.1946  -6.1718  -5.9828  -5.9407  -5.7956  -5.7707
    -5.4651  -5.4070  -5.1999  -5.0719  -4.4369  -4.3897  -4.0993  -3.7808
    -2.1567  -1.7797  -1.4076  -1.3946  -1.3815  -1.3709  -1.3688  -1.3586
    -1.3564  -1.3504  -1.3315  -1.3286   0.8230   0.9990   1.0432   1.0905
     1.2200   1.2786   1.3946   1.4631   1.7121   1.8481

          k = 0.5000 0.0962 0.0000 ( 59291 PWs)   bands (ev):

   -72.4644 -72.4633 -43.9275 -43.9264 -43.9237 -43.9226 -43.9226 -43.9216
   -21.1265 -20.9321 -20.7314 -20.1720 -19.8175 -19.4810 -19.3352 -19.1833
   -19.0284 -18.7927 -18.6444 -18.5635 -18.1501 -18.1188 -17.9327 -17.7370
   -12.3595 -12.1261 -12.0553 -11.9230 -11.7036 -11.6584 -11.5674 -10.9554
   -10.9005 -10.6349 -10.5385  -9.8710  -9.7066  -9.3497  -9.1230  -8.6699
    -8.6353  -8.5638  -8.4165  -8.4030  -8.1723  -8.1182  -8.0869  -8.0522
    -7.6971  -7.6363  -7.5058  -7.4880  -7.3653  -7.1852  -7.0810  -6.8753
    -6.6352  -6.4083  -6.2105  -6.1697  -5.9721  -5.9414  -5.7956  -5.7615
    -5.4652  -5.4119  -5.1997  -5.0715  -4.4344  -4.3918  -4.0998  -3.7809
    -2.0562  -1.9073  -1.3970  -1.3850  -1.3796  -1.3724  -1.3697  -1.3628
    -1.3600  -1.3533  -1.3483  -1.3399   0.9482   1.0052   1.1151   1.1413
     1.2952   1.3379   1.4576   1.5156   1.5937   1.7235

          k =-0.3333 0.3849 0.0000 ( 59291 PWs)   bands (ev):

   -72.4644 -72.4633 -43.9275 -43.9264 -43.9237 -43.9227 -43.9226 -43.9216
   -21.1273 -20.9297 -20.7330 -20.1719 -19.8190 -19.4796 -19.3309 -19.1862
   -19.0310 -18.7911 -18.6457 -18.5628 -18.1522 -18.1161 -17.9328 -17.7371
   -12.3602 -12.1241 -12.0575 -11.9217 -11.6933 -11.6697 -11.5668 -10.9552
   -10.9006 -10.6343 -10.5390  -9.8713  -9.7066  -9.3496  -9.1237  -8.6732
    -8.6342  -8.5661  -8.4067  -8.3987  -8.1738  -8.1259  -8.0755  -8.0646
    -7.6974  -7.6349  -7.5117  -7.4825  -7.3648  -7.1851  -7.0816  -6.8809
    -6.6333  -6.4032  -6.1946  -6.1719  -5.9828  -5.9408  -5.7956  -5.7707
    -5.4649  -5.4070  -5.1999  -5.0719  -4.4369  -4.3897  -4.0993  -3.7808
    -2.1567  -1.7797  -1.4076  -1.3946  -1.3815  -1.3711  -1.3686  -1.3586
    -1.3564  -1.3504  -1.3315  -1.3286   0.8230   0.9990   1.0431   1.0905
     1.2200   1.2786   1.3946   1.4631   1.7121   1.8481

          k =-0.1667-0.0962 0.0000 ( 59226 PWs)   bands (ev):

   -72.4644 -72.4633 -43.9274 -43.9264 -43.9237 -43.9226 -43.9226 -43.9216
   -21.3261 -20.5481 -20.3568 -20.3539 -19.9997 -19.9950 -19.8192 -18.7401
   -18.7370 -18.3883 -18.3791 -18.3700 -18.2840 -18.2732 -18.0894 -18.0865
   -12.5225 -12.5124 -12.4207 -11.5922 -11.5902 -11.4412 -11.4307 -10.9379
   -10.9373  -9.9410  -9.9401  -9.6886  -9.3873  -9.3852  -9.2428  -9.2412
    -9.0548  -9.0533  -8.9368  -8.3358  -8.3349  -7.9136  -7.9111  -7.8965
    -7.8579  -7.7829  -7.6176  -7.6052  -7.1349  -7.1187  -6.9716  -6.9000
    -6.8984  -6.8658  -6.5427  -6.5417  -6.2701  -5.3514  -5.3432  -5.1558
    -5.0780  -4.8179  -4.8116  -4.7679  -4.6309  -4.6220  -4.3603  -4.3539
    -2.2726  -1.6221  -1.4217  -1.4065  -1.3927  -1.3797  -1.3629  -1.3575
    -1.3464  -1.3419  -1.3169  -1.2674   0.6628   0.9144   0.9731   1.2128
     1.2636   1.3477   1.4149   1.5250   1.5605   1.6870

          k =-0.0000-0.1925 0.0000 ( 59226 PWs)   bands (ev):

   -72.4644 -72.4633 -43.9274 -43.9264 -43.9237 -43.9226 -43.9226 -43.9216
   -21.3262 -20.5436 -20.3679 -20.3505 -20.0014 -19.9866 -19.8225 -18.7445
   -18.7294 -18.4025 -18.3882 -18.3646 -18.2689 -18.2687 -18.0973 -18.0834
   -12.5229 -12.5126 -12.4201 -11.5974 -11.5860 -11.4393 -11.4304 -10.9416
   -10.9351  -9.9411  -9.9401  -9.6888  -9.3866  -9.3846  -9.2428  -9.2418
    -9.0555  -9.0527  -8.9377  -8.3358  -8.3344  -7.9126  -7.9119  -7.8747
    -7.8561  -7.7842  -7.6720  -7.5859  -7.1413  -7.0847  -6.9703  -6.9029
    -6.8969  -6.8807  -6.5454  -6.5384  -6.2706  -5.3704  -5.3140  -5.1562
    -5.0778  -4.8393  -4.8309  -4.7660  -4.6076  -4.6065  -4.3844  -4.3396
    -2.3043  -1.5757  -1.4255  -1.4104  -1.3948  -1.3807  -1.3640  -1.3585
    -1.3427  -1.3386  -1.3118  -1.2193   0.4868   0.8548   0.9078   1.1790
     1.2527   1.3737   1.4548   1.5991   1.6117   1.6536

          k = 0.5000-0.8660 0.0000 ( 59292 PWs)   bands (ev):

   -72.4644 -72.4633 -43.9274 -43.9264 -43.9238 -43.9227 -43.9226 -43.9216
   -21.0635 -21.0583 -20.4806 -20.4790 -19.4375 -19.4339 -19.4261 -19.4238
   -19.0058 -19.0017 -18.3395 -18.3343 -18.3310 -18.3238 -17.8052 -17.8036
   -12.0848 -12.0797 -12.0755 -12.0704 -11.8890 -11.8870 -11.3428 -11.3396
   -10.2470 -10.2453 -10.1473 -10.1459 -10.1413 -10.1402  -8.5876  -8.5777
    -8.5599  -8.5571  -8.5563  -8.5531  -7.8754  -7.8740  -7.8729  -7.8722
    -7.8349  -7.8340  -7.7845  -7.7810  -7.5028  -7.4987  -6.6228  -6.6210
    -6.3668  -6.3580  -6.3136  -6.3091  -6.2030  -6.1999  -5.7215  -5.7158
    -5.5583  -5.5544  -4.7317  -4.7249  -4.7217  -4.7140  -3.8936  -3.8898
    -2.0557  -1.9079  -1.3970  -1.3847  -1.3767  -1.3727  -1.3716  -1.3628
    -1.3603  -1.3533  -1.3483  -1.3399   1.0258   1.0396   1.0743   1.1387
     1.3446   1.3778   1.4736   1.5509   1.6437   1.6644

          k =-1.0000 0.0000 0.0000 ( 59292 PWs)   bands (ev):

   -72.4644 -72.4633 -43.9274 -43.9264 -43.9238 -43.9227 -43.9226 -43.9216
   -21.0854 -21.0339 -20.4903 -20.4734 -19.4375 -19.4357 -19.4310 -19.4118
   -19.0249 -18.9844 -18.3784 -18.3497 -18.3055 -18.2953 -17.8121 -17.7985
   -12.1136 -12.0917 -12.0531 -12.0492 -11.8950 -11.8813 -11.3611 -11.3226
   -10.2532 -10.2530 -10.1462 -10.1446 -10.1364 -10.1354  -8.6445  -8.5834
    -8.5699  -8.5403  -8.5312  -8.5066  -7.8881  -7.8811  -7.8749  -7.8710
    -7.8420  -7.8263  -7.8123  -7.7530  -7.5238  -7.4795  -6.6258  -6.6158
    -6.3912  -6.3327  -6.3186  -6.2826  -6.2196  -6.1867  -5.7527  -5.6951
    -5.5771  -5.5358  -4.7942  -4.7769  -4.6645  -4.6594  -3.9100  -3.8753
    -2.2873  -1.5872  -1.4210  -1.4095  -1.3920  -1.3749  -1.3705  -1.3627
    -1.3420  -1.3376  -1.3117  -1.2194   0.4580   0.5937   1.0505   1.0544
     1.1218   1.5396   1.5840   1.6004   1.6261   1.8172

 ------ SPIN DOWN ----------


          k = 0.1667 0.2887 0.0000 ( 59267 PWs)   bands (ev):

   -68.0926 -68.0913 -39.6015 -39.6003 -39.5828 -39.5816 -39.5796 -39.5784
   -21.2520 -20.6659 -20.6615 -20.1102 -20.1016 -19.5931 -19.5889 -19.1049
   -18.7011 -18.6966 -18.4636 -18.4559 -18.1986 -18.0909 -18.0862 -17.8553
   -12.4916 -12.2150 -12.2075 -11.8284 -11.8261 -11.6664 -11.1995 -11.1964
   -10.3991 -10.3751 -10.1248 -10.1224  -9.5967  -9.5955  -8.8341  -8.8291
    -8.8216  -8.7737  -8.7698  -8.6043  -8.2051  -8.0283  -8.0184  -7.8368
    -7.8347  -7.4452  -7.4440  -7.2770  -7.2433  -7.2160  -7.2142  -6.9695
    -6.9623  -6.5482  -6.5404  -6.1613  -6.1606  -5.8622  -5.4258  -5.2765
    -5.2691  -5.2078  -4.9084  -4.8913  -4.4947  -4.3484  -4.3409  -3.9727
    -0.2281   0.6426   1.0508   1.2013   1.3610   1.4217   1.4496   1.5341
     1.5632   1.8224   1.8812   2.1126   2.2041   2.2770   2.2989   2.4033
     2.4274   2.4899   2.5149   2.6053   2.6318   2.6588

          k = 0.1667-0.4811 0.0000 ( 59291 PWs)   bands (ev):

   -68.0926 -68.0913 -39.6015 -39.6003 -39.5828 -39.5816 -39.5796 -39.5784
   -21.1207 -20.9191 -20.7281 -20.1659 -19.8100 -19.4722 -19.3226 -19.1799
   -19.0200 -18.7848 -18.6432 -18.5521 -18.1502 -18.0997 -17.9276 -17.7294
   -12.3554 -12.1204 -12.0522 -11.9148 -11.6883 -11.6659 -11.5607 -10.9493
   -10.8970 -10.6305 -10.5315  -9.8668  -9.7011  -9.3434  -9.1184  -8.6481
    -8.6298  -8.5602  -8.3972  -8.3639  -8.1693  -8.1125  -8.0706  -8.0581
    -7.6951  -7.6311  -7.5016  -7.4827  -7.3442  -7.1783  -7.0757  -6.8513
    -6.6289  -6.3807  -6.1681  -6.1647  -5.9642  -5.9361  -5.7910  -5.7366
    -5.4593  -5.3906  -5.1891  -5.0420  -4.4260  -4.3533  -4.0824  -3.7606
    -0.1863   0.6081   1.0158   1.1014   1.1701   1.2983   1.3445   1.7701
     1.8512   1.8772   2.0486   2.1091   2.2521   2.2865   2.2991   2.3557
     2.4523   2.4729   2.5162   2.5252   2.5462   2.6488

          k = 0.1667-0.0962 0.0000 ( 59226 PWs)   bands (ev):

   -68.0926 -68.0913 -39.6015 -39.6003 -39.5828 -39.5816 -39.5796 -39.5784
   -21.3186 -20.5396 -20.3497 -20.3475 -19.9912 -19.9877 -19.8129 -18.7315
   -18.7290 -18.3794 -18.3723 -18.3619 -18.2748 -18.2666 -18.0823 -18.0802
   -12.5162 -12.5083 -12.4156 -11.5874 -11.5857 -11.4350 -11.4267 -10.9328
   -10.9322  -9.9357  -9.9348  -9.6829  -9.3819  -9.3801  -9.2369  -9.2358
    -9.0496  -9.0485  -8.9104  -8.3298  -8.3291  -7.9087  -7.9067  -7.8650
    -7.8495  -7.7783  -7.5938  -7.5871  -7.1055  -7.0959  -6.9666  -6.8953
    -6.8941  -6.8496  -6.5379  -6.5370  -6.2653  -5.3239  -5.3189  -5.1507
    -5.0728  -4.7950  -4.7891  -4.7459  -4.6079  -4.6007  -4.3398  -4.3359
    -0.2661   0.6782   1.0435   1.1397   1.2534   1.4696   1.5032   1.5693
     1.8354   1.9186   1.9973   2.0268   2.0701   2.1267   2.3030   2.4044
     2.4250   2.4575   2.4942   2.5606   2.6450   2.6639

          k =-0.5000-0.8660 0.0000 ( 59292 PWs)   bands (ev):

   -68.0926 -68.0913 -39.6015 -39.6003 -39.5828 -39.5816 -39.5796 -39.5785
   -21.0555 -21.0510 -20.4735 -20.4721 -19.4283 -19.4252 -19.4193 -19.4173
   -18.9983 -18.9948 -18.3303 -18.3258 -18.3238 -18.3175 -17.7976 -17.7961
   -12.0783 -12.0739 -12.0711 -12.0663 -11.8845 -11.8827 -11.3375 -11.3346
   -10.2415 -10.2400 -10.1411 -10.1399 -10.1365 -10.1355  -8.5586  -8.5562
    -8.5545  -8.5515  -8.5485  -8.5468  -7.8698  -7.8690  -7.8682  -7.8676
    -7.8291  -7.8282  -7.7622  -7.7594  -7.4982  -7.4943  -6.6175  -6.6160
    -6.3300  -6.3241  -6.2977  -6.2942  -6.1976  -6.1949  -5.6999  -5.6955
    -5.5530  -5.5495  -4.7082  -4.7022  -4.7002  -4.6936  -3.8730  -3.8700
     0.0351   0.1598   1.0400   1.0474   1.4534   1.4652   1.5199   1.5437
     1.7745   1.7794   2.0647   2.0726   2.2207   2.2518   2.3861   2.3930
     2.4408   2.4525   2.5055   2.5146   2.6068   2.6489

          k =-0.1667 0.2887 0.0000 ( 59267 PWs)   bands (ev):

   -68.0926 -68.0913 -39.6015 -39.6003 -39.5828 -39.5816 -39.5796 -39.5784
   -21.2520 -20.6660 -20.6614 -20.1102 -20.1016 -19.5931 -19.5888 -19.1049
   -18.7011 -18.6966 -18.4636 -18.4559 -18.1985 -18.0910 -18.0862 -17.8553
   -12.4915 -12.2151 -12.2075 -11.8284 -11.8261 -11.6664 -11.1995 -11.1963
   -10.3991 -10.3750 -10.1248 -10.1225  -9.5967  -9.5954  -8.8340  -8.8291
    -8.8216  -8.7738  -8.7698  -8.6043  -8.2052  -8.0283  -8.0184  -7.8368
    -7.8347  -7.4452  -7.4440  -7.2770  -7.2433  -7.2160  -7.2142  -6.9695
    -6.9624  -6.5482  -6.5404  -6.1613  -6.1605  -5.8622  -5.4258  -5.2765
    -5.2691  -5.2077  -4.9084  -4.8913  -4.4948  -4.3484  -4.3408  -3.9727
    -0.2281   0.6426   1.0508   1.2012   1.3610   1.4217   1.4496   1.5341
     1.5632   1.8225   1.8812   2.1127   2.2041   2.2769   2.2988   2.4034
     2.4275   2.4901   2.5149   2.6052   2.6317   2.6588

          k = 0.3333 0.0000 0.0000 ( 59267 PWs)   bands (ev):

   -68.0926 -68.0913 -39.6015 -39.6003 -39.5828 -39.5816 -39.5796 -39.5784
   -21.2517 -20.6851 -20.6422 -20.1091 -20.1018 -19.6124 -19.5707 -19.1061
   -18.7138 -18.6812 -18.4638 -18.4568 -18.1958 -18.1077 -18.0733 -17.8549
   -12.4911 -12.2151 -12.2075 -11.8355 -11.8206 -11.6651 -11.2136 -11.1824
   -10.3985 -10.3750 -10.1351 -10.1127  -9.6016  -9.5897  -8.8382  -8.8299
    -8.8147  -8.7913  -8.7535  -8.6047  -8.2062  -8.0716  -7.9749  -7.8358
    -7.8343  -7.4500  -7.4388  -7.2748  -7.2433  -7.2236  -7.2066  -6.9698
    -6.9630  -6.5896  -6.5025  -6.1636  -6.1577  -5.8649  -5.4256  -5.2909
    -5.2505  -5.2080  -4.9070  -4.8937  -4.4902  -4.3670  -4.3277  -3.9725
    -0.1507   0.4092   1.0498   1.1978   1.3570   1.4862   1.4926   1.5225
     1.5915   1.8356   2.1009   2.1567   2.2188   2.2487   2.2812   2.4041
     2.4497   2.4721   2.5458   2.5594   2.6007   2.6272

          k =-0.1667-0.4811 0.0000 ( 59291 PWs)   bands (ev):

   -68.0926 -68.0913 -39.6015 -39.6003 -39.5828 -39.5816 -39.5796 -39.5784
   -21.1207 -20.9191 -20.7281 -20.1659 -19.8100 -19.4722 -19.3226 -19.1799
   -19.0200 -18.7848 -18.6432 -18.5520 -18.1502 -18.0996 -17.9276 -17.7294
   -12.3555 -12.1204 -12.0522 -11.9148 -11.6883 -11.6659 -11.5607 -10.9493
   -10.8971 -10.6305 -10.5314  -9.8668  -9.7011  -9.3434  -9.1185  -8.6481
    -8.6298  -8.5602  -8.3972  -8.3639  -8.1693  -8.1125  -8.0706  -8.0582
    -7.6951  -7.6311  -7.5015  -7.4827  -7.3442  -7.1783  -7.0756  -6.8513
    -6.6289  -6.3807  -6.1681  -6.1647  -5.9642  -5.9360  -5.7910  -5.7366
    -5.4594  -5.3906  -5.1891  -5.0420  -4.4260  -4.3533  -4.0824  -3.7606
    -0.1863   0.6081   1.0158   1.1014   1.1701   1.2983   1.3445   1.7702
     1.8511   1.8772   2.0485   2.1091   2.2521   2.2865   2.2991   2.3557
     2.4523   2.4730   2.5161   2.5252   2.5462   2.6482

          k = 0.5000-0.0962 0.0000 ( 59291 PWs)   bands (ev):

   -68.0926 -68.0913 -39.6015 -39.6003 -39.5828 -39.5816 -39.5796 -39.5784
   -21.1190 -20.9238 -20.7250 -20.1648 -19.8101 -19.4732 -19.3262 -19.1769
   -19.0206 -18.7851 -18.6372 -18.5559 -18.1423 -18.1101 -17.9258 -17.7292
   -12.3545 -12.1208 -12.0509 -11.9175 -11.6975 -11.6554 -11.5621 -10.9498
   -10.8953 -10.6292 -10.5332  -9.8654  -9.7015  -9.3440  -9.1181  -8.6426
    -8.6299  -8.5586  -8.4004  -8.3810  -8.1679  -8.1010  -8.0802  -8.0494
    -7.6926  -7.6315  -7.5009  -7.4835  -7.3411  -7.1792  -7.0762  -6.8517
    -6.6292  -6.3832  -6.1782  -6.1650  -5.9555  -5.9358  -5.7905  -5.7382
    -5.4601  -5.3898  -5.1776  -5.0499  -4.4128  -4.3693  -4.0804  -3.7607
     0.0261   0.1726   1.0011   1.1115   1.1661   1.3037   1.6305   1.7555
     1.7909   2.0392   2.0509   2.1591   2.2213   2.2921   2.3079   2.3812
     2.4312   2.4891   2.5220   2.5397   2.6100   2.6394

          k =-0.3333-0.3849 0.0000 ( 59291 PWs)   bands (ev):

   -68.0926 -68.0913 -39.6015 -39.6003 -39.5828 -39.5816 -39.5796 -39.5784
   -21.1196 -20.9221 -20.7262 -20.1647 -19.8112 -19.4721 -19.3232 -19.1789
   -19.0224 -18.7841 -18.6380 -18.5554 -18.1437 -18.1084 -17.9259 -17.7293
   -12.3551 -12.1192 -12.0526 -11.9165 -11.6891 -11.6646 -11.5615 -10.9496
   -10.8954 -10.6288 -10.5336  -9.8657  -9.7015  -9.3439  -9.1186  -8.6440
    -8.6292  -8.5601  -8.3983  -8.3749  -8.1690  -8.1051  -8.0707  -8.0597
    -7.6929  -7.6304  -7.5057  -7.4792  -7.3408  -7.1793  -7.0765  -6.8548
    -6.6278  -6.3804  -6.1702  -6.1660  -5.9612  -5.9352  -5.7907  -5.7429
    -5.4600  -5.3873  -5.1778  -5.0500  -4.4141  -4.3681  -4.0801  -3.7607
    -0.0866   0.3460   1.0160   1.0675   1.2074   1.2951   1.5044   1.7710
     1.9375   1.9685   2.0537   2.0631   2.1930   2.2938   2.3289   2.4227
     2.4341   2.4531   2.4954   2.5601   2.5786   2.6443

          k = 0.5000 0.0962 0.0000 ( 59291 PWs)   bands (ev):

   -68.0926 -68.0913 -39.6015 -39.6003 -39.5828 -39.5816 -39.5796 -39.5784
   -21.1190 -20.9238 -20.7250 -20.1648 -19.8101 -19.4732 -19.3262 -19.1769
   -19.0206 -18.7851 -18.6372 -18.5559 -18.1423 -18.1101 -17.9258 -17.7292
   -12.3545 -12.1208 -12.0509 -11.9175 -11.6975 -11.6554 -11.5621 -10.9498
   -10.8953 -10.6292 -10.5332  -9.8654  -9.7015  -9.3440  -9.1180  -8.6426
    -8.6299  -8.5586  -8.4004  -8.3810  -8.1679  -8.1009  -8.0802  -8.0494
    -7.6927  -7.6314  -7.5009  -7.4836  -7.3411  -7.1793  -7.0761  -6.8517
    -6.6291  -6.3832  -6.1782  -6.1649  -5.9556  -5.9358  -5.7906  -5.7382
    -5.4602  -5.3898  -5.1776  -5.0499  -4.4128  -4.3693  -4.0804  -3.7607
     0.0261   0.1726   1.0011   1.1116   1.1661   1.3037   1.6305   1.7555
     1.7909   2.0391   2.0510   2.1591   2.2213   2.2922   2.3078   2.3812
     2.4312   2.4891   2.5219   2.5396   2.6094   2.6404

          k =-0.3333 0.3849 0.0000 ( 59291 PWs)   bands (ev):

   -68.0926 -68.0913 -39.6015 -39.6003 -39.5828 -39.5816 -39.5796 -39.5784
   -21.1196 -20.9221 -20.7262 -20.1647 -19.8112 -19.4721 -19.3232 -19.1789
   -19.0224 -18.7841 -18.6380 -18.5554 -18.1437 -18.1084 -17.9259 -17.7293
   -12.3551 -12.1192 -12.0526 -11.9165 -11.6891 -11.6646 -11.5615 -10.9497
   -10.8954 -10.6288 -10.5336  -9.8657  -9.7015  -9.3438  -9.1186  -8.6440
    -8.6293  -8.5600  -8.3983  -8.3749  -8.1690  -8.1051  -8.0707  -8.0597
    -7.6928  -7.6304  -7.5057  -7.4791  -7.3409  -7.1792  -7.0766  -6.8548
    -6.6278  -6.3804  -6.1702  -6.1661  -5.9612  -5.9353  -5.7906  -5.7429
    -5.4599  -5.3873  -5.1778  -5.0500  -4.4141  -4.3681  -4.0801  -3.7607
    -0.0866   0.3460   1.0160   1.0675   1.2074   1.2951   1.5044   1.7710
     1.9375   1.9686   2.0536   2.0632   2.1930   2.2938   2.3288   2.4227
     2.4342   2.4530   2.4958   2.5604   2.5795   2.6488

          k =-0.1667-0.0962 0.0000 ( 59226 PWs)   bands (ev):

   -68.0926 -68.0913 -39.6015 -39.6003 -39.5828 -39.5816 -39.5796 -39.5784
   -21.3186 -20.5396 -20.3497 -20.3475 -19.9912 -19.9877 -19.8129 -18.7315
   -18.7290 -18.3794 -18.3724 -18.3619 -18.2748 -18.2666 -18.0823 -18.0802
   -12.5163 -12.5083 -12.4156 -11.5874 -11.5857 -11.4351 -11.4267 -10.9328
   -10.9322  -9.9357  -9.9349  -9.6829  -9.3819  -9.3801  -9.2369  -9.2358
    -9.0496  -9.0485  -8.9104  -8.3299  -8.3292  -7.9086  -7.9067  -7.8650
    -7.8495  -7.7784  -7.5938  -7.5871  -7.1055  -7.0959  -6.9666  -6.8953
    -6.8940  -6.8496  -6.5378  -6.5370  -6.2654  -5.3239  -5.3189  -5.1506
    -5.0729  -4.7950  -4.7891  -4.7459  -4.6079  -4.6007  -4.3398  -4.3360
    -0.2661   0.6782   1.0434   1.1396   1.2534   1.4696   1.5033   1.5694
     1.8352   1.9186   1.9973   2.0268   2.0701   2.1267   2.3030   2.4044
     2.4250   2.4575   2.4942   2.5605   2.6452   2.6638

          k =-0.0000-0.1925 0.0000 ( 59226 PWs)   bands (ev):

   -68.0926 -68.0913 -39.6015 -39.6003 -39.5828 -39.5816 -39.5796 -39.5784
   -21.3186 -20.5365 -20.3583 -20.3442 -19.9933 -19.9810 -19.8152 -18.7352
   -18.7231 -18.3891 -18.3782 -18.3586 -18.2642 -18.2639 -18.0883 -18.0773
   -12.5165 -12.5085 -12.4152 -11.5917 -11.5822 -11.4336 -11.4264 -10.9356
   -10.9305  -9.9358  -9.9348  -9.6831  -9.3814  -9.3796  -9.2366  -9.2365
    -9.0504  -9.0480  -8.9107  -8.3302  -8.3284  -7.9079  -7.9072  -7.8580
    -7.8445  -7.7794  -7.6260  -7.5733  -7.1127  -7.0739  -6.9656  -6.8977
    -6.8927  -6.8573  -6.5400  -6.5344  -6.2657  -5.3370  -5.3010  -5.1508
    -5.0726  -4.8062  -4.7985  -4.7449  -4.5954  -4.5935  -4.3545  -4.3261
    -0.2915   0.8155   1.0381   1.1515   1.2514   1.4406   1.4743   1.5843
     1.7546   1.8575   1.8969   1.9927   2.0229   2.2231   2.3420   2.3635
     2.4063   2.4777   2.5309   2.6508   2.6527   2.6598

          k = 0.5000-0.8660 0.0000 ( 59292 PWs)   bands (ev):

   -68.0926 -68.0913 -39.6015 -39.6003 -39.5828 -39.5816 -39.5796 -39.5785
   -21.0556 -21.0509 -20.4735 -20.4721 -19.4283 -19.4253 -19.4193 -19.4173
   -18.9983 -18.9947 -18.3304 -18.3258 -18.3239 -18.3175 -17.7976 -17.7961
   -12.0784 -12.0738 -12.0712 -12.0663 -11.8845 -11.8827 -11.3375 -11.3345
   -10.2415 -10.2400 -10.1411 -10.1399 -10.1365 -10.1355  -8.5586  -8.5563
    -8.5545  -8.5513  -8.5484  -8.5468  -7.8698  -7.8690  -7.8682  -7.8677
    -7.8291  -7.8282  -7.7622  -7.7594  -7.4982  -7.4944  -6.6175  -6.6160
    -6.3300  -6.3241  -6.2977  -6.2942  -6.1976  -6.1947  -5.6999  -5.6955
    -5.5532  -5.5496  -4.7082  -4.7022  -4.7002  -4.6936  -3.8730  -3.8700
     0.0351   0.1599   1.0401   1.0475   1.4533   1.4652   1.5198   1.5437
     1.7745   1.7794   2.0648   2.0725   2.2207   2.2519   2.3860   2.3930
     2.4412   2.4520   2.5058   2.5145   2.6063   2.6498

          k =-1.0000 0.0000 0.0000 ( 59292 PWs)   bands (ev):

   -68.0926 -68.0913 -39.6015 -39.6003 -39.5828 -39.5816 -39.5796 -39.5784
   -21.0740 -21.0308 -20.4811 -20.4673 -19.4289 -19.4268 -19.4226 -19.4083
   -19.0132 -18.9810 -18.3617 -18.3386 -18.3034 -18.2941 -17.8027 -17.7921
   -12.1033 -12.0860 -12.0507 -12.0475 -11.8896 -11.8779 -11.3536 -11.3195
   -10.2463 -10.2456 -10.1406 -10.1395 -10.1320 -10.1316  -8.5999  -8.5752
    -8.5638  -8.5377  -8.5296  -8.5008  -7.8802  -7.8745  -7.8677  -7.8662
    -7.8245  -7.8228  -7.7870  -7.7411  -7.5164  -7.4776  -6.6198  -6.6121
    -6.3462  -6.3112  -6.3011  -6.2763  -6.2117  -6.1828  -5.7205  -5.6796
    -5.5690  -5.5337  -4.7518  -4.7370  -4.6605  -4.6562  -3.8834  -3.8608
    -0.2197   0.7502   1.0389   1.1212   1.2544   1.3092   1.5055   1.5927
     1.6237   1.6724   1.8898   2.1515   2.1937   2.2995   2.3242   2.3925
     2.4081   2.5031   2.5510   2.5797   2.6370   2.6532

     the Fermi energy is    -0.8577 ev

!    total energy              =   -1133.81109340 Ry

     total all-electron energy =     -6753.486796 Ry
     estimated scf accuracy    <       0.00000006 Ry
     smearing contrib. (-TS)   =      -0.00000000 Ry
     internal energy E=F+TS    =   -1133.81109340 Ry

     The total energy is F=E-TS. E is the sum of the following terms:
     one-electron contribution =   -3914.32132840 Ry
     hartree contribution      =    1985.81235583 Ry
     xc contribution           =    -186.20510753 Ry
     ewald contribution        =    1340.26901072 Ry
     DFT-D3 Dispersion         =      -0.13822238 Ry
     one-center paw contrib.   =    -359.22780164 Ry

     total magnetization       =    12.00 Bohr mag/cell
     absolute magnetization    =    12.00 Bohr mag/cell

     convergence has been achieved in  12 iterations

     Writing output data file ./mytmp/Crdimer0.26-0.0.save/
 
     init_run     :     18.51s CPU     19.47s WALL (       1 calls)
     electrons    :    443.94s CPU    472.90s WALL (       1 calls)

     Called by init_run:
     wfcinit      :     13.66s CPU     14.15s WALL (       1 calls)
     potinit      :      1.60s CPU      1.72s WALL (       1 calls)
     hinit0       :      1.51s CPU      1.61s WALL (       1 calls)

     Called by electrons:
     c_bands      :    361.28s CPU    382.68s WALL (      12 calls)
     sum_band     :     64.05s CPU     68.43s WALL (      12 calls)
     v_of_rho     :      4.10s CPU      4.35s WALL (      13 calls)
     newd         :      8.21s CPU     10.82s WALL (      13 calls)
     PAW_pot      :      5.93s CPU      6.43s WALL (      13 calls)
     mix_rho      :      0.83s CPU      0.84s WALL (      12 calls)

     Called by c_bands:
     init_us_2    :      4.36s CPU      4.38s WALL (     750 calls)
     cegterg      :    350.68s CPU    372.04s WALL (     360 calls)

     Called by *egterg:
     cdiaghg      :     22.96s CPU     36.37s WALL (    2447 calls)
     h_psi        :    225.00s CPU    232.02s WALL (    2477 calls)
     s_psi        :     25.11s CPU     25.15s WALL (    2477 calls)
     g_psi        :      0.68s CPU      0.70s WALL (    2087 calls)

     Called by h_psi:
     h_psi:calbec :     25.70s CPU     26.28s WALL (    2477 calls)
     vloc_psi     :    171.86s CPU    178.18s WALL (    2477 calls)
     add_vuspsi   :     25.45s CPU     25.55s WALL (    2477 calls)

     General routines
     calbec       :     33.71s CPU     34.47s WALL (    2837 calls)
     fft          :      3.80s CPU      4.54s WALL (     319 calls)
     ffts         :      0.10s CPU      0.10s WALL (      50 calls)
     fftw         :    174.37s CPU    180.94s WALL (  229644 calls)
     interpolate  :      0.37s CPU      0.38s WALL (      26 calls)
 
     Parallel routines
     fft_scatt_xy :     27.61s CPU     28.53s WALL (  230013 calls)
     fft_scatt_yz :     68.43s CPU     72.07s WALL (  230013 calls)
 
     PWSCF        :   7m44.47s CPU   8m16.55s WALL

 
   This run was terminated on:  22:43: 7  29Mar2021            

=------------------------------------------------------------------------------=
   JOB DONE.
=------------------------------------------------------------------------------=
