
     Program PWSCF v.6.7MaX starts on 30Mar2021 at  0:57:15 

     This program is part of the open-source Quantum ESPRESSO suite
     for quantum simulation of materials; please cite
         "P. Giannozzi et al., J. Phys.:Condens. Matter 21 395502 (2009);
         "P. Giannozzi et al., J. Phys.:Condens. Matter 29 465901 (2017);
          URL http://www.quantum-espresso.org", 
     in publications or presentations arising from this work. More details at
     http://www.quantum-espresso.org/quote

     Parallel version (MPI), running on    48 processors

     MPI processes distributed on     1 nodes
     R & G space division:  proc/nbgrp/npool/nimage =      48
     Reading input from Crdimer0.3-0.4.scf.in

     Current dimensions of program PWSCF are:
     Max number of different atomic species (ntypx) = 10
     Max number of k-points (npk) =  40000
     Max angular momentum in pseudopotentials (lmaxx) =  3
     file N.pbe-n-kjpaw_psl.1.0.0.UPF: wavefunction(s)  2S renormalized
     file Cr.pbe-spn-kjpaw_psl.1.0.0.UPF: wavefunction(s)  3S 3P 3D renormalized
     file Cr.pbe-spn-kjpaw_psl.1.0.0.UPF: wavefunction(s)  3S 3P 3D renormalized

     --------------------------------------------
     Parameters for DFT-D3 Dispersion Correction:
     --------------------------------------------
       Reference C6 values for interpolation: 

         atom   Coordination number   C6
         B          0.000           214.36
         B          0.971           150.74
         B          1.944           106.23
         B          2.913            62.89
         B          4.586            56.06
         N          0.000            50.54
         N          0.994            44.25
         N          2.014            39.35
         N          2.990            31.16
         Cr1        0.000          1381.48
         Cr1        1.827           571.38
         Cr1       10.619           306.69
         Cr2        0.000          1381.48
         Cr2        1.827           571.38
         Cr2       10.619           306.69

       Values used:

         atom   Coordination number  R0_AB[au]  C6      C8
         B          3.349            3.039     62.88   2505.66
         B          3.336            3.039     62.89   2506.00
         B          3.335            3.039     62.89   2506.01
         B          3.336            3.039     62.89   2506.00
         B          3.340            3.039     62.89   2505.90
         B          3.336            3.039     62.89   2505.99
         N          3.141            2.478     31.22    688.63
         N          3.136            2.478     31.22    688.68
         N          3.134            2.478     31.22    688.69
         N          3.135            2.478     31.22    688.69
         N          3.135            2.478     31.22    688.68
         N          3.140            2.478     31.22    688.64
         N          3.157            2.478     31.21    688.50
         N          3.134            2.478     31.22    688.70
         N          3.134            2.478     31.22    688.70
         B          3.361            3.039     62.87   2505.31
         B          3.336            3.039     62.89   2506.00
         B          3.336            3.039     62.89   2505.99
         B          3.340            3.039     62.89   2505.90
         B          3.349            3.039     62.88   2505.66
         B          3.361            3.039     62.87   2505.31
         N          3.157            2.478     31.21    688.50
         B          3.344            3.039     62.89   2505.79
         B          3.337            3.039     62.89   2505.97
         B          3.336            3.039     62.89   2506.00
         N          3.140            2.478     31.22    688.64
         N          3.136            2.478     31.22    688.68
         N          3.134            2.478     31.22    688.70
         N          3.134            2.478     31.22    688.70
         N          3.134            2.478     31.22    688.69
         N          3.135            2.478     31.22    688.69
         B          3.336            3.039     62.89   2506.00
         Cr1        0.110            3.252   1381.48 127494.68
         Cr2        0.110            3.252   1381.48 127494.68

         Molecular C6 ( Ry / a.u.^6 ) =     79164.75


     Subspace diagonalization in iterative solution of the eigenvalue problem:
     one sub-group per band group will be used
     scalapack distributed-memory algorithm (size of sub-group:  6*  6 procs)

 
     Parallelization info
     --------------------
     sticks:   dense  smooth     PW     G-vecs:    dense   smooth      PW
     Min         235      98     26                36277     9874    1408
     Max         236      99     27                36282     9883    1425
     Sum       11311    4741   1285              1741401   474235   68095
 


     bravais-lattice index     =            4
     lattice parameter (alat)  =      18.9275  a.u.
     unit-cell volume          =   10553.3021 (a.u.)^3
     number of atoms/cell      =           34
     number of atomic types    =            4
     number of electrons       =       156.00
     number of Kohn-Sham states=           94
     kinetic-energy cutoff     =      48.0000  Ry
     charge density cutoff     =     457.0000  Ry
     scf convergence threshold =      1.0E-07
     mixing beta               =       0.5000
     number of iterations used =            8  plain     mixing
     Exchange-correlation= SLA  PW   PBX  PBC
                           (   1   4   3   4   0   0   0)

     celldm(1)=  18.927497  celldm(2)=   0.000000  celldm(3)=   1.797125
     celldm(4)=   0.000000  celldm(5)=   0.000000  celldm(6)=   0.000000

     crystal axes: (cart. coord. in units of alat)
               a(1) = (   1.000000   0.000000   0.000000 )  
               a(2) = (  -0.500000   0.866025   0.000000 )  
               a(3) = (   0.000000   0.000000   1.797125 )  

     reciprocal axes: (cart. coord. in units 2 pi/alat)
               b(1) = (  1.000000  0.577350  0.000000 )  
               b(2) = (  0.000000  1.154701  0.000000 )  
               b(3) = (  0.000000  0.000000  0.556444 )  


     PseudoPot. # 1 for B  read from file:
     /home/sf05/q-e-qe-6.7MaX-Release/pseudo/B.pbe-n-kjpaw_psl.1.0.0.UPF
     MD5 check sum: d9c678ba5d3b2fd7b74e61139c9288d8
     Pseudo is Projector augmented-wave + core cor, Zval =  3.0
     Generated using "atomic" code by A. Dal Corso  v.5.1.2
     Shape of augmentation charge: PSQ
     Using radial grid of 1059 points,  4 beta functions with: 
                l(1) =   0
                l(2) =   0
                l(3) =   1
                l(4) =   1
     Q(r) pseudized with 0 coefficients 


     PseudoPot. # 2 for N  read from file:
     /home/sf05/q-e-qe-6.7MaX-Release/pseudo/N.pbe-n-kjpaw_psl.1.0.0.UPF
     MD5 check sum: e0e4e94a9c4025c5b51bd7d8793849bd
     Pseudo is Projector augmented-wave + core cor, Zval =  5.0
     Generated using "atomic" code by A. Dal Corso  v.5.1.2
     Shape of augmentation charge: PSQ
     Using radial grid of 1085 points,  4 beta functions with: 
                l(1) =   0
                l(2) =   0
                l(3) =   1
                l(4) =   1
     Q(r) pseudized with 0 coefficients 


     PseudoPot. # 3 for Cr read from file:
     /home/sf05/q-e-qe-6.7MaX-Release/pseudo/Cr.pbe-spn-kjpaw_psl.1.0.0.UPF
     MD5 check sum: 198f1a2427a48552563eee314eba32ba
     Pseudo is Projector augmented-wave + core cor, Zval = 14.0
     Generated using &quot;atomic&quot; code by A. Dal Corso  v.6.3
     Shape of augmentation charge: PSQ
     Using radial grid of 1183 points,  6 beta functions with: 
                l(1) =   0
                l(2) =   0
                l(3) =   1
                l(4) =   1
                l(5) =   2
                l(6) =   2
     Q(r) pseudized with 0 coefficients 


     PseudoPot. # 4 for Cr read from file:
     /home/sf05/q-e-qe-6.7MaX-Release/pseudo/Cr.pbe-spn-kjpaw_psl.1.0.0.UPF
     MD5 check sum: 198f1a2427a48552563eee314eba32ba
     Pseudo is Projector augmented-wave + core cor, Zval = 14.0
     Generated using &quot;atomic&quot; code by A. Dal Corso  v.6.3
     Shape of augmentation charge: PSQ
     Using radial grid of 1183 points,  6 beta functions with: 
                l(1) =   0
                l(2) =   0
                l(3) =   1
                l(4) =   1
                l(5) =   2
                l(6) =   2
     Q(r) pseudized with 0 coefficients 


     atomic species   valence    mass     pseudopotential
        B              3.00    10.81100     B ( 1.00)
        N              5.00    14.00674     N ( 1.00)
        Cr1           14.00    51.99610     Cr( 1.00)
        Cr2           14.00    51.99610     Cr( 1.00)

     Starting magnetic structure 
     atomic species   magnetization
        B            0.000
        N            0.000
        Cr1          1.000
        Cr2          1.000

     No symmetry found



   Cartesian axes

     site n.     atom                  positions (alat units)
         1           B   tau(   1) = (  -0.1250000   0.2165064   0.8985623  )
         2           B   tau(   2) = (   0.3750000   0.6495191   0.8985623  )
         3           B   tau(   3) = (   0.2500000   0.0000000   0.8985623  )
         4           B   tau(   4) = (   0.7500000   0.0000000   0.8985623  )
         5           B   tau(   5) = (   0.1250000   0.2165064   0.8985623  )
         6           B   tau(   6) = (  -0.3750000   0.6495191   0.8985623  )
         7           N   tau(   7) = (   0.7500005   0.2886748   0.8985623  )
         8           N   tau(   8) = (   0.3750005   0.5051812   0.8985623  )
         9           N   tau(   9) = (   0.3750005   0.0721685   0.8985623  )
        10           N   tau(  10) = (   0.6250005   0.0721685   0.8985623  )
        11           N   tau(  11) = (   0.2500005   0.2886748   0.8985623  )
        12           N   tau(  12) = (   0.6250005   0.5051812   0.8985623  )
        13           N   tau(  13) = (   0.0000005   0.2886748   0.8985623  )
        14           N   tau(  14) = (   0.2500005   0.7216875   0.8985623  )
        15           N   tau(  15) = (  -0.2499995   0.7216875   0.8985623  )
        16           B   tau(  16) = (   0.0000000   0.4330127   0.8985623  )
        17           B   tau(  17) = (   0.1250000   0.6495191   0.8985623  )
        18           B   tau(  18) = (  -0.1250000   0.6495191   0.8985623  )
        19           B   tau(  19) = (   0.3750000   0.2165064   0.8985623  )
        20           B   tau(  20) = (   0.6250000   0.2165064   0.8985623  )
        21           B   tau(  21) = (   0.5000000   0.4330127   0.8985623  )
        22           N   tau(  22) = (   0.5000005   0.2886748   0.8985623  )
        23           B   tau(  23) = (  -0.2500000   0.4330127   0.8985623  )
        24           B   tau(  24) = (   0.2500000   0.4330127   0.8985623  )
        25           B   tau(  25) = (   0.5000000   0.0000000   0.8985623  )
        26           N   tau(  26) = (  -0.1249995   0.5051812   0.8985623  )
        27           N   tau(  27) = (   0.1250005   0.5051812   0.8985623  )
        28           N   tau(  28) = (   0.0000005   0.7216875   0.8985623  )
        29           N   tau(  29) = (   0.5000005   0.7216875   0.8985623  )
        30           N   tau(  30) = (   0.1250005   0.0721685   0.8985623  )
        31           N   tau(  31) = (   0.8750005   0.0721685   0.8985623  )
        32           B   tau(  32) = (   0.0000000   0.0000000   0.8985623  )
        33           Cr1 tau(  33) = (   0.5500000   0.3464102   1.2040735  )
        34           Cr2 tau(  34) = (  -0.0500000   0.3464102   1.2040735  )

     number of k points=    15  Gaussian smearing, width (Ry)=  0.0000
                       cart. coord. in units 2pi/alat
        k(    1) = (   0.1666667   0.2886751   0.0000000), wk =   0.0740741
        k(    2) = (   0.1666667  -0.4811252   0.0000000), wk =   0.0740741
        k(    3) = (   0.1666667  -0.0962250   0.0000000), wk =   0.0740741
        k(    4) = (  -0.5000000  -0.8660254   0.0000000), wk =   0.0370370
        k(    5) = (  -0.1666667   0.2886751   0.0000000), wk =   0.0740741
        k(    6) = (   0.3333333   0.0000000   0.0000000), wk =   0.0740741
        k(    7) = (  -0.1666667  -0.4811252   0.0000000), wk =   0.0740741
        k(    8) = (   0.5000000  -0.0962250   0.0000000), wk =   0.0740741
        k(    9) = (  -0.3333333  -0.3849002   0.0000000), wk =   0.0740741
        k(   10) = (   0.5000000   0.0962250   0.0000000), wk =   0.0740741
        k(   11) = (  -0.3333333   0.3849002   0.0000000), wk =   0.0740741
        k(   12) = (  -0.1666667  -0.0962250   0.0000000), wk =   0.0740741
        k(   13) = (  -0.0000000  -0.1924501   0.0000000), wk =   0.0740741
        k(   14) = (   0.5000000  -0.8660254   0.0000000), wk =   0.0370370
        k(   15) = (  -1.0000000   0.0000000   0.0000000), wk =   0.0370370

     Dense  grid:  1741401 G-vectors     FFT dimensions: ( 135, 135, 240)

     Smooth grid:   474235 G-vectors     FFT dimensions: (  90,  90, 160)

     Estimated max dynamical RAM per process >     218.62 MB

     Estimated total dynamical RAM >      10.25 GB
     Generating pointlists ...
     new r_m :   0.0595 (alat units)  1.1269 (a.u.) for type    1
     new r_m :   0.0595 (alat units)  1.1269 (a.u.) for type    2
     new r_m :   0.1299 (alat units)  2.4587 (a.u.) for type    3
     new r_m :   0.1299 (alat units)  2.4587 (a.u.) for type    4

     Initial potential from superposition of free atoms

     starting charge  155.99382, renormalised to  156.00000

     negative rho (up, down):  6.546E-03 4.655E-04
     Starting wfcs are  148 randomized atomic wfcs
     Checking if some PAW data can be deallocated... 

     total cpu time spent up to now is       20.6 secs

     Self-consistent Calculation

     iteration #  1     ecut=    48.00 Ry     beta= 0.50
     Davidson diagonalization with overlap
     ethr =  1.00E-02,  avg # of iterations =  2.9

     negative rho (up, down):  4.711E-03 2.916E-03

     total cpu time spent up to now is       64.6 secs

     total energy              =   -1130.76674934 Ry
     estimated scf accuracy    <      11.36993244 Ry

     total magnetization       =    12.00 Bohr mag/cell
     absolute magnetization    =    12.16 Bohr mag/cell

     iteration #  2     ecut=    48.00 Ry     beta= 0.50
     Davidson diagonalization with overlap
     ethr =  7.29E-03,  avg # of iterations =  2.6

     negative rho (up, down):  7.405E-03 9.749E-03

     total cpu time spent up to now is      105.6 secs

     total energy              =   -1133.04481772 Ry
     estimated scf accuracy    <       3.32406563 Ry

     total magnetization       =    11.78 Bohr mag/cell
     absolute magnetization    =    11.78 Bohr mag/cell

     iteration #  3     ecut=    48.00 Ry     beta= 0.50
     Davidson diagonalization with overlap
     ethr =  2.13E-03,  avg # of iterations =  6.4

     negative rho (up, down):  3.364E-03 4.888E-03

     total cpu time spent up to now is      146.5 secs

     total energy              =   -1133.61346283 Ry
     estimated scf accuracy    <       0.68700670 Ry

     total magnetization       =    12.00 Bohr mag/cell
     absolute magnetization    =    12.05 Bohr mag/cell

     iteration #  4     ecut=    48.00 Ry     beta= 0.50
     Davidson diagonalization with overlap
     ethr =  4.40E-04,  avg # of iterations =  7.1

     negative rho (up, down):  6.827E-03 1.353E-02

     total cpu time spent up to now is      187.7 secs

     total energy              =   -1133.80087347 Ry
     estimated scf accuracy    <       0.25899472 Ry

     total magnetization       =    12.00 Bohr mag/cell
     absolute magnetization    =    12.00 Bohr mag/cell

     iteration #  5     ecut=    48.00 Ry     beta= 0.50
     Davidson diagonalization with overlap
     ethr =  1.66E-04,  avg # of iterations =  7.9

     negative rho (up, down):  4.566E-03 9.999E-03

     total cpu time spent up to now is      229.5 secs

     total energy              =   -1133.80960471 Ry
     estimated scf accuracy    <       0.02295117 Ry

     total magnetization       =    12.00 Bohr mag/cell
     absolute magnetization    =    12.00 Bohr mag/cell

     iteration #  6     ecut=    48.00 Ry     beta= 0.50
     Davidson diagonalization with overlap
     c_bands:  1 eigenvalues not converged
     c_bands:  4 eigenvalues not converged
     c_bands:  2 eigenvalues not converged
     c_bands:  1 eigenvalues not converged
     c_bands:  1 eigenvalues not converged
     ethr =  1.47E-05,  avg # of iterations = 13.5

     negative rho (up, down):  3.400E-03 8.136E-03

     total cpu time spent up to now is      288.7 secs

     total energy              =   -1133.81454952 Ry
     estimated scf accuracy    <       0.00288318 Ry

     total magnetization       =    12.00 Bohr mag/cell
     absolute magnetization    =    12.01 Bohr mag/cell

     iteration #  7     ecut=    48.00 Ry     beta= 0.50
     Davidson diagonalization with overlap
     c_bands:  1 eigenvalues not converged
     c_bands:  1 eigenvalues not converged
     c_bands:  2 eigenvalues not converged
     c_bands:  1 eigenvalues not converged
     c_bands:  1 eigenvalues not converged
     ethr =  1.85E-06,  avg # of iterations =  9.7

     negative rho (up, down):  3.009E-03 7.466E-03

     total cpu time spent up to now is      339.2 secs

     total energy              =   -1133.81540201 Ry
     estimated scf accuracy    <       0.00030118 Ry

     total magnetization       =    12.00 Bohr mag/cell
     absolute magnetization    =    12.00 Bohr mag/cell

     iteration #  8     ecut=    48.00 Ry     beta= 0.50
     Davidson diagonalization with overlap
     c_bands:  1 eigenvalues not converged
     c_bands:  1 eigenvalues not converged
     c_bands:  1 eigenvalues not converged
     ethr =  1.93E-07,  avg # of iterations =  5.1

     negative rho (up, down):  2.879E-03 7.259E-03

     total cpu time spent up to now is      377.3 secs

     total energy              =   -1133.81548267 Ry
     estimated scf accuracy    <       0.00007591 Ry

     total magnetization       =    12.00 Bohr mag/cell
     absolute magnetization    =    12.00 Bohr mag/cell

     iteration #  9     ecut=    48.00 Ry     beta= 0.50
     Davidson diagonalization with overlap
     c_bands:  1 eigenvalues not converged
     ethr =  4.87E-08,  avg # of iterations =  3.2

     negative rho (up, down):  2.839E-03 7.242E-03

     total cpu time spent up to now is      414.6 secs

     total energy              =   -1133.81556854 Ry
     estimated scf accuracy    <       0.00000769 Ry

     total magnetization       =    12.00 Bohr mag/cell
     absolute magnetization    =    12.00 Bohr mag/cell

     iteration # 10     ecut=    48.00 Ry     beta= 0.50
     Davidson diagonalization with overlap
     ethr =  4.93E-09,  avg # of iterations =  4.9

     negative rho (up, down):  2.827E-03 7.243E-03

     total cpu time spent up to now is      462.3 secs

     total energy              =   -1133.81559069 Ry
     estimated scf accuracy    <       0.00000465 Ry

     total magnetization       =    12.00 Bohr mag/cell
     absolute magnetization    =    12.00 Bohr mag/cell

     iteration # 11     ecut=    48.00 Ry     beta= 0.50
     Davidson diagonalization with overlap
     ethr =  2.98E-09,  avg # of iterations =  2.2

     negative rho (up, down):  2.823E-03 7.251E-03

     total cpu time spent up to now is      502.7 secs

     total energy              =   -1133.81561535 Ry
     estimated scf accuracy    <       0.00000038 Ry

     total magnetization       =    12.00 Bohr mag/cell
     absolute magnetization    =    12.00 Bohr mag/cell

     iteration # 12     ecut=    48.00 Ry     beta= 0.50
     Davidson diagonalization with overlap
     ethr =  2.43E-10,  avg # of iterations =  3.4

     negative rho (up, down):  2.820E-03 7.256E-03
 
     Magnetic moment per site:
     atom:    1    charge:    0.8805    magn:    0.0007    constr:    0.0000
     atom:    2    charge:    0.8803    magn:    0.0002    constr:    0.0000
     atom:    3    charge:    0.8803    magn:    0.0001    constr:    0.0000
     atom:    4    charge:    0.8803    magn:    0.0001    constr:    0.0000
     atom:    5    charge:    0.8803    magn:    0.0009    constr:    0.0000
     atom:    6    charge:    0.8804    magn:    0.0005    constr:    0.0000
     atom:    7    charge:    2.8606    magn:    0.0085    constr:    0.0000
     atom:    8    charge:    2.8608    magn:    0.0031    constr:    0.0000
     atom:    9    charge:    2.8608    magn:    0.0008    constr:    0.0000
     atom:   10    charge:    2.8608    magn:    0.0016    constr:    0.0000
     atom:   11    charge:    2.8607    magn:    0.0018    constr:    0.0000
     atom:   12    charge:    2.8607    magn:    0.0060    constr:    0.0000
     atom:   13    charge:    2.8597    magn:    0.0108    constr:    0.0000
     atom:   14    charge:    2.8599    magn:    0.0001    constr:    0.0000
     atom:   15    charge:    2.8599    magn:    0.0003    constr:    0.0000
     atom:   16    charge:    0.8804    magn:    0.0003    constr:    0.0000
     atom:   17    charge:    0.8800    magn:    0.0002    constr:    0.0000
     atom:   18    charge:    0.8800    magn:    0.0005    constr:    0.0000
     atom:   19    charge:    0.8798    magn:    0.0009    constr:    0.0000
     atom:   20    charge:    0.8800    magn:    0.0007    constr:    0.0000
     atom:   21    charge:    0.8802    magn:    0.0003    constr:    0.0000
     atom:   22    charge:    2.8610    magn:    0.0108    constr:    0.0000
     atom:   23    charge:    0.8799    magn:    0.0001    constr:    0.0000
     atom:   24    charge:    0.8798    magn:    0.0003    constr:    0.0000
     atom:   25    charge:    0.8799    magn:    0.0002    constr:    0.0000
     atom:   26    charge:    2.8596    magn:    0.0060    constr:    0.0000
     atom:   27    charge:    2.8597    magn:    0.0031    constr:    0.0000
     atom:   28    charge:    2.8598    magn:    0.0004    constr:    0.0000
     atom:   29    charge:    2.8596    magn:    0.0004    constr:    0.0000
     atom:   30    charge:    2.8595    magn:    0.0008    constr:    0.0000
     atom:   31    charge:    2.8595    magn:    0.0016    constr:    0.0000
     atom:   32    charge:    0.8802    magn:    0.0002    constr:    0.0000
     atom:   33    charge:   12.8322    magn:    4.8206    constr:    0.0000
     atom:   34    charge:   12.8322    magn:    4.8206    constr:    0.0000

     total cpu time spent up to now is      540.6 secs

     End of self-consistent calculation

 ------ SPIN UP ------------


          k = 0.1667 0.2887 0.0000 ( 59267 PWs)   bands (ev):

   -72.5062 -72.5059 -43.9713 -43.9705 -43.9657 -43.9651 -43.9580 -43.9577
   -21.2731 -20.6929 -20.6753 -20.1370 -20.1155 -19.6198 -19.6019 -19.1254
   -18.7287 -18.7129 -18.4894 -18.4698 -18.2212 -18.1130 -18.1000 -17.8748
   -12.5096 -12.2363 -12.2224 -11.8481 -11.8407 -11.6834 -11.2219 -11.2093
   -10.4177 -10.3925 -10.1460 -10.1369  -9.6164  -9.6111  -8.8664  -8.8529
    -8.8443  -8.7969  -8.7813  -8.6212  -8.2222  -8.0814  -8.0409  -7.8564
    -7.8503  -7.4652  -7.4608  -7.3268  -7.2661  -7.2361  -7.2288  -6.9910
    -6.9748  -6.5977  -6.5588  -6.1797  -6.1772  -5.8979  -5.4438  -5.3219
    -5.3020  -5.2253  -4.9537  -4.9111  -4.5328  -4.3833  -4.3633  -4.0040
    -2.5157  -1.5645  -1.5024  -1.4829  -1.4645  -1.4215  -1.3950  -1.3674
    -1.3574  -1.3356  -1.2995  -1.1945   0.6038   0.7262   1.0459   1.1306
     1.2104   1.4106   1.4536   1.5574   1.5711   1.7138

          k = 0.1667-0.4811 0.0000 ( 59291 PWs)   bands (ev):

   -72.5062 -72.5059 -43.9713 -43.9705 -43.9657 -43.9651 -43.9580 -43.9577
   -21.1433 -20.9377 -20.7485 -20.1868 -19.8302 -19.4926 -19.3427 -19.2006
   -19.0401 -18.8052 -18.6674 -18.5686 -18.1758 -18.1134 -17.9476 -17.7491
   -12.3738 -12.1390 -12.0696 -11.9316 -11.7079 -11.6812 -11.5776 -10.9669
   -10.9156 -10.6490 -10.5479  -9.8856  -9.7183  -9.3613  -9.1363  -8.6960
    -8.6484  -8.5782  -8.4143  -8.3928  -8.1865  -8.1507  -8.0904  -8.0732
    -7.7138  -7.6484  -7.5202  -7.4980  -7.3831  -7.1959  -7.0929  -6.8865
    -6.6474  -6.4164  -6.2020  -6.1828  -5.9996  -5.9544  -5.8088  -5.7702
    -5.4763  -5.4281  -5.2347  -5.0651  -4.4717  -4.3710  -4.1159  -3.7917
    -2.5093  -1.5698  -1.5020  -1.4799  -1.4642  -1.4193  -1.3993  -1.3674
    -1.3567  -1.3356  -1.2997  -1.1953   0.5750   0.6289   1.0245   1.1060
     1.1582   1.2122   1.3425   1.7788   1.8492   1.9041

          k = 0.1667-0.0962 0.0000 ( 59226 PWs)   bands (ev):

   -72.5062 -72.5059 -43.9713 -43.9705 -43.9657 -43.9651 -43.9580 -43.9577
   -21.3395 -20.5627 -20.3697 -20.3661 -20.0147 -20.0061 -19.8304 -18.7550
   -18.7497 -18.4058 -18.3890 -18.3844 -18.2995 -18.2788 -18.1013 -18.0967
   -12.5366 -12.5240 -12.4329 -11.6062 -11.6018 -11.4575 -11.4395 -10.9507
   -10.9493  -9.9539  -9.9523  -9.7013  -9.4036  -9.3941  -9.2553  -9.2534
    -9.0671  -9.0651  -8.9505  -8.3484  -8.3471  -7.9287  -7.9223  -7.9104
    -7.8708  -7.7954  -7.6296  -7.6159  -7.1543  -7.1237  -6.9848  -6.9133
    -6.9102  -6.8751  -6.5557  -6.5537  -6.2825  -5.3693  -5.3527  -5.1684
    -5.0905  -4.8431  -4.8135  -4.7870  -4.6503  -4.6155  -4.3725  -4.3604
    -2.5223  -1.5594  -1.5028  -1.4857  -1.4648  -1.4246  -1.3915  -1.3674
    -1.3582  -1.3356  -1.2993  -1.1937   0.6225   0.8242   1.0131   1.1402
     1.2427   1.3151   1.4157   1.5497   1.6260   1.6782

          k =-0.5000-0.8660 0.0000 ( 59292 PWs)   bands (ev):

   -72.5062 -72.5059 -43.9714 -43.9705 -43.9658 -43.9651 -43.9580 -43.9577
   -21.0843 -21.0644 -20.4939 -20.4910 -19.4584 -19.4507 -19.4343 -19.4304
   -19.0234 -19.0085 -18.3598 -18.3509 -18.3489 -18.3191 -17.8183 -17.8144
   -12.1040 -12.0954 -12.0903 -12.0722 -11.9036 -11.8976 -11.3594 -11.3473
   -10.2611 -10.2584 -10.1609 -10.1573 -10.1533 -10.1502  -8.6196  -8.5793
    -8.5775  -8.5701  -8.5670  -8.5564  -7.8906  -7.8876  -7.8853  -7.8849
    -7.8465  -7.8436  -7.7996  -7.7891  -7.5211  -7.5051  -6.6367  -6.6328
    -6.3929  -6.3658  -6.3254  -6.3128  -6.2193  -6.2082  -5.7377  -5.7216
    -5.5762  -5.5616  -4.7647  -4.7428  -4.7392  -4.6924  -3.9079  -3.8982
    -2.4537  -1.6606  -1.4976  -1.4797  -1.4584  -1.4185  -1.4020  -1.3693
    -1.3589  -1.3452  -1.3088  -1.2864   0.8405   1.0299   1.0689   1.1793
     1.2651   1.3261   1.4680   1.5750   1.6103   1.6443

          k =-0.1667 0.2887 0.0000 ( 59267 PWs)   bands (ev):

   -72.5062 -72.5059 -43.9713 -43.9705 -43.9657 -43.9651 -43.9580 -43.9577
   -21.2731 -20.6929 -20.6753 -20.1370 -20.1155 -19.6198 -19.6019 -19.1254
   -18.7287 -18.7128 -18.4894 -18.4699 -18.2211 -18.1130 -18.0999 -17.8748
   -12.5095 -12.2363 -12.2224 -11.8481 -11.8407 -11.6834 -11.2219 -11.2093
   -10.4177 -10.3925 -10.1461 -10.1369  -9.6164  -9.6110  -8.8664  -8.8529
    -8.8442  -8.7970  -8.7813  -8.6212  -8.2222  -8.0814  -8.0409  -7.8564
    -7.8502  -7.4652  -7.4608  -7.3268  -7.2661  -7.2361  -7.2288  -6.9911
    -6.9748  -6.5977  -6.5588  -6.1797  -6.1771  -5.8979  -5.4438  -5.3220
    -5.3020  -5.2252  -4.9536  -4.9111  -4.5328  -4.3833  -4.3633  -4.0040
    -2.5157  -1.5645  -1.5024  -1.4829  -1.4645  -1.4215  -1.3950  -1.3674
    -1.3574  -1.3356  -1.2995  -1.1945   0.6038   0.7262   1.0459   1.1306
     1.2104   1.4106   1.4536   1.5573   1.5711   1.7138

          k = 0.3333 0.0000 0.0000 ( 59267 PWs)   bands (ev):

   -72.5062 -72.5059 -43.9713 -43.9705 -43.9657 -43.9651 -43.9580 -43.9577
   -21.2727 -20.7136 -20.6544 -20.1355 -20.1156 -19.6407 -19.5829 -19.1275
   -18.7421 -18.6941 -18.4906 -18.4708 -18.2171 -18.1331 -18.0858 -17.8740
   -12.5090 -12.2359 -12.2228 -11.8552 -11.8359 -11.6815 -11.2355 -11.1959
   -10.4162 -10.3928 -10.1566 -10.1270  -9.6209  -9.6053  -8.8686  -8.8527
    -8.8405  -8.8138  -8.7651  -8.6220  -8.2240  -8.1313  -7.9898  -7.8545
    -7.8499  -7.4703  -7.4557  -7.3216  -7.2677  -7.2436  -7.2209  -6.9914
    -6.9759  -6.6455  -6.5173  -6.1820  -6.1740  -5.9037  -5.4435  -5.3379
    -5.2748  -5.2257  -4.9586  -4.9099  -4.5247  -4.4106  -4.3464  -4.0038
    -2.4811  -1.6189  -1.4992  -1.4826  -1.4607  -1.4226  -1.3963  -1.3677
    -1.3592  -1.3420  -1.3029  -1.2658   0.8607   0.9649   1.0721   1.1903
     1.2168   1.3646   1.4370   1.5079   1.5528   1.6306

          k =-0.1667-0.4811 0.0000 ( 59291 PWs)   bands (ev):

   -72.5062 -72.5059 -43.9713 -43.9705 -43.9657 -43.9651 -43.9580 -43.9577
   -21.1433 -20.9377 -20.7485 -20.1868 -19.8302 -19.4926 -19.3427 -19.2006
   -19.0402 -18.8052 -18.6674 -18.5686 -18.1758 -18.1134 -17.9476 -17.7491
   -12.3738 -12.1390 -12.0696 -11.9315 -11.7079 -11.6812 -11.5776 -10.9669
   -10.9156 -10.6490 -10.5479  -9.8856  -9.7183  -9.3613  -9.1363  -8.6960
    -8.6484  -8.5782  -8.4143  -8.3928  -8.1865  -8.1507  -8.0904  -8.0733
    -7.7138  -7.6484  -7.5201  -7.4980  -7.3831  -7.1959  -7.0929  -6.8865
    -6.6474  -6.4164  -6.2020  -6.1829  -5.9996  -5.9544  -5.8088  -5.7702
    -5.4764  -5.4281  -5.2346  -5.0651  -4.4717  -4.3710  -4.1159  -3.7917
    -2.5093  -1.5698  -1.5020  -1.4799  -1.4642  -1.4193  -1.3993  -1.3674
    -1.3567  -1.3356  -1.2997  -1.1953   0.5750   0.6289   1.0245   1.1060
     1.1582   1.2122   1.3425   1.7789   1.8491   1.9043

          k = 0.5000-0.0962 0.0000 ( 59291 PWs)   bands (ev):

   -72.5062 -72.5059 -43.9714 -43.9705 -43.9658 -43.9650 -43.9580 -43.9577
   -21.1404 -20.9457 -20.7432 -20.1850 -19.8304 -19.4939 -19.3498 -19.1951
   -19.0412 -18.8051 -18.6576 -18.5752 -18.1651 -18.1290 -17.9440 -17.7490
   -12.3724 -12.1396 -12.0676 -11.9356 -11.7187 -11.6682 -11.5798 -10.9678
   -10.9129 -10.6471 -10.5503  -9.8835  -9.7190  -9.3622  -9.1357  -8.6848
    -8.6493  -8.5764  -8.4256  -8.4184  -8.1842  -8.1288  -8.1025  -8.0622
    -7.7099  -7.6492  -7.5193  -7.4992  -7.3776  -7.1973  -7.0935  -6.8877
    -6.6478  -6.4203  -6.2249  -6.1823  -5.9827  -5.9537  -5.8080  -5.7727
    -5.4777  -5.4237  -5.2132  -5.0810  -4.4503  -4.4001  -4.1097  -3.7925
    -2.4538  -1.6606  -1.4975  -1.4796  -1.4584  -1.4195  -1.4018  -1.3694
    -1.3588  -1.3453  -1.3088  -1.2864   0.8113   1.0044   1.1146   1.1428
     1.1915   1.3037   1.3906   1.5014   1.6364   1.7883

          k =-0.3333-0.3849 0.0000 ( 59291 PWs)   bands (ev):

   -72.5062 -72.5059 -43.9713 -43.9705 -43.9658 -43.9650 -43.9580 -43.9577
   -21.1414 -20.9429 -20.7452 -20.1849 -19.8321 -19.4923 -19.3446 -19.1982
   -19.0446 -18.8032 -18.6591 -18.5743 -18.1670 -18.1265 -17.9441 -17.7491
   -12.3732 -12.1374 -12.0702 -11.9341 -11.7087 -11.6796 -11.5789 -10.9674
   -10.9130 -10.6465 -10.5510  -9.8840  -9.7191  -9.3620  -9.1363  -8.6886
    -8.6476  -8.5782  -8.4178  -8.4121  -8.1861  -8.1364  -8.0906  -8.0751
    -7.7105  -7.6472  -7.5261  -7.4932  -7.3770  -7.1974  -7.0941  -6.8931
    -6.6456  -6.4152  -6.2083  -6.1849  -5.9929  -5.9526  -5.8083  -5.7839
    -5.4774  -5.4183  -5.2136  -5.0811  -4.4529  -4.3976  -4.1093  -3.7925
    -2.4737  -1.6256  -1.4990  -1.4800  -1.4604  -1.4189  -1.4010  -1.3689
    -1.3580  -1.3419  -1.3030  -1.2662   0.7231   0.9564   1.0263   1.1055
     1.1918   1.2393   1.3263   1.5842   1.7512   1.8501

          k = 0.5000 0.0962 0.0000 ( 59291 PWs)   bands (ev):

   -72.5062 -72.5059 -43.9714 -43.9705 -43.9658 -43.9650 -43.9580 -43.9577
   -21.1404 -20.9457 -20.7432 -20.1851 -19.8304 -19.4939 -19.3498 -19.1951
   -19.0412 -18.8051 -18.6576 -18.5752 -18.1651 -18.1290 -17.9440 -17.7489
   -12.3724 -12.1397 -12.0676 -11.9356 -11.7187 -11.6681 -11.5798 -10.9678
   -10.9129 -10.6471 -10.5504  -9.8835  -9.7190  -9.3622  -9.1356  -8.6848
    -8.6493  -8.5764  -8.4256  -8.4184  -8.1842  -8.1288  -8.1025  -8.0621
    -7.7100  -7.6491  -7.5193  -7.4993  -7.3776  -7.1974  -7.0935  -6.8877
    -6.6477  -6.4203  -6.2249  -6.1822  -5.9827  -5.9536  -5.8081  -5.7727
    -5.4778  -5.4238  -5.2132  -5.0809  -4.4503  -4.4000  -4.1097  -3.7925
    -2.4538  -1.6606  -1.4975  -1.4796  -1.4584  -1.4195  -1.4018  -1.3694
    -1.3588  -1.3453  -1.3088  -1.2864   0.8113   1.0044   1.1146   1.1428
     1.1915   1.3037   1.3906   1.5014   1.6364   1.7883

          k =-0.3333 0.3849 0.0000 ( 59291 PWs)   bands (ev):

   -72.5062 -72.5059 -43.9713 -43.9705 -43.9658 -43.9650 -43.9580 -43.9577
   -21.1414 -20.9429 -20.7451 -20.1849 -19.8321 -19.4923 -19.3446 -19.1982
   -19.0446 -18.8032 -18.6591 -18.5743 -18.1670 -18.1265 -17.9441 -17.7491
   -12.3732 -12.1374 -12.0702 -11.9342 -11.7087 -11.6797 -11.5788 -10.9674
   -10.9130 -10.6465 -10.5510  -9.8841  -9.7190  -9.3620  -9.1363  -8.6886
    -8.6477  -8.5781  -8.4178  -8.4122  -8.1861  -8.1364  -8.0907  -8.0750
    -7.7104  -7.6472  -7.5261  -7.4931  -7.3770  -7.1974  -7.0942  -6.8931
    -6.6457  -6.4152  -6.2083  -6.1849  -5.9928  -5.9527  -5.8082  -5.7839
    -5.4773  -5.4182  -5.2136  -5.0811  -4.4529  -4.3976  -4.1093  -3.7925
    -2.4737  -1.6256  -1.4990  -1.4800  -1.4604  -1.4189  -1.4010  -1.3689
    -1.3580  -1.3419  -1.3030  -1.2662   0.7231   0.9564   1.0263   1.1055
     1.1919   1.2393   1.3263   1.5842   1.7512   1.8501

          k =-0.1667-0.0962 0.0000 ( 59226 PWs)   bands (ev):

   -72.5062 -72.5059 -43.9713 -43.9705 -43.9657 -43.9651 -43.9580 -43.9577
   -21.3395 -20.5626 -20.3697 -20.3661 -20.0147 -20.0061 -19.8304 -18.7550
   -18.7497 -18.4058 -18.3890 -18.3844 -18.2995 -18.2788 -18.1013 -18.0967
   -12.5366 -12.5240 -12.4329 -11.6062 -11.6018 -11.4576 -11.4395 -10.9507
   -10.9493  -9.9539  -9.9524  -9.7012  -9.4036  -9.3941  -9.2553  -9.2535
    -9.0671  -9.0651  -8.9505  -8.3484  -8.3471  -7.9287  -7.9223  -7.9104
    -7.8708  -7.7955  -7.6296  -7.6159  -7.1543  -7.1237  -6.9849  -6.9133
    -6.9102  -6.8751  -6.5556  -6.5537  -6.2826  -5.3693  -5.3528  -5.1683
    -5.0906  -4.8431  -4.8135  -4.7871  -4.6502  -4.6155  -4.3725  -4.3605
    -2.5223  -1.5594  -1.5028  -1.4857  -1.4648  -1.4246  -1.3915  -1.3674
    -1.3582  -1.3356  -1.2993  -1.1937   0.6225   0.8242   1.0131   1.1402
     1.2427   1.3151   1.4157   1.5498   1.6260   1.6782

          k =-0.0000-0.1925 0.0000 ( 59226 PWs)   bands (ev):

   -72.5062 -72.5059 -43.9713 -43.9705 -43.9657 -43.9651 -43.9580 -43.9577
   -21.3396 -20.5571 -20.3862 -20.3587 -20.0161 -19.9970 -19.8344 -18.7613
   -18.7391 -18.4327 -18.3900 -18.3755 -18.2793 -18.2788 -18.1121 -18.0916
   -12.5364 -12.5249 -12.4322 -11.6126 -11.5966 -11.4544 -11.4400 -10.9542
   -10.9476  -9.9575  -9.9487  -9.7016  -9.4041  -9.3923  -9.2562  -9.2533
    -9.0663  -9.0662  -8.9512  -8.3502  -8.3442  -7.9291  -7.9219  -7.8883
    -7.8687  -7.7972  -7.6861  -7.5952  -7.1513  -7.0995  -6.9832  -6.9170
    -6.9083  -6.8891  -6.5594  -6.5493  -6.2832  -5.3852  -5.3245  -5.1688
    -5.0901  -4.8997  -4.8087  -4.7698  -4.6197  -4.6120  -4.3992  -4.3454
    -2.5376  -1.5396  -1.5045  -1.4855  -1.4665  -1.4240  -1.3909  -1.3674
    -1.3575  -1.3324  -1.2984  -1.1435   0.4702   0.7568   0.9901   1.1140
     1.2123   1.3627   1.4191   1.5832   1.6392   1.7780

          k = 0.5000-0.8660 0.0000 ( 59292 PWs)   bands (ev):

   -72.5062 -72.5059 -43.9714 -43.9705 -43.9658 -43.9651 -43.9580 -43.9577
   -21.0843 -21.0644 -20.4939 -20.4910 -19.4584 -19.4507 -19.4343 -19.4304
   -19.0235 -19.0084 -18.3597 -18.3510 -18.3490 -18.3191 -17.8182 -17.8144
   -12.1040 -12.0955 -12.0904 -12.0721 -11.9036 -11.8976 -11.3594 -11.3472
   -10.2611 -10.2584 -10.1609 -10.1574 -10.1533 -10.1502  -8.6196  -8.5794
    -8.5775  -8.5701  -8.5670  -8.5563  -7.8906  -7.8876  -7.8853  -7.8849
    -7.8466  -7.8437  -7.7996  -7.7891  -7.5212  -7.5052  -6.6366  -6.6328
    -6.3929  -6.3658  -6.3254  -6.3128  -6.2193  -6.2081  -5.7377  -5.7216
    -5.5762  -5.5617  -4.7646  -4.7429  -4.7392  -4.6923  -3.9079  -3.8982
    -2.4537  -1.6606  -1.4976  -1.4797  -1.4584  -1.4185  -1.4020  -1.3694
    -1.3589  -1.3452  -1.3088  -1.2864   0.8405   1.0299   1.0689   1.1793
     1.2651   1.3261   1.4680   1.5750   1.6102   1.6442

          k =-1.0000 0.0000 0.0000 ( 59292 PWs)   bands (ev):

   -72.5062 -72.5059 -43.9714 -43.9705 -43.9658 -43.9651 -43.9580 -43.9577
   -21.1027 -21.0430 -20.5075 -20.4822 -19.4709 -19.4341 -19.4318 -19.4302
   -19.0414 -18.9935 -18.4044 -18.3530 -18.3181 -18.3031 -17.8279 -17.8069
   -12.1353 -12.0983 -12.0689 -12.0555 -11.9102 -11.8918 -11.3754 -11.3328
   -10.2760 -10.2584 -10.1602 -10.1566 -10.1481 -10.1439  -8.6613  -8.6040
    -8.5808  -8.5510  -8.5409  -8.5155  -7.9070  -7.8988  -7.8841  -7.8759
    -7.8525  -7.8359  -7.8287  -7.7639  -7.5400  -7.4887  -6.6412  -6.6261
    -6.4161  -6.3320  -6.3197  -6.3059  -6.2348  -6.1958  -5.7670  -5.7042
    -5.5926  -5.5453  -4.8518  -4.7336  -4.6935  -4.6617  -3.9296  -3.8794
    -2.5253  -1.5485  -1.5035  -1.4797  -1.4660  -1.4193  -1.3985  -1.3662
    -1.3563  -1.3326  -1.2989  -1.1455   0.4634   0.5374   1.0382   1.1086
     1.1165   1.4107   1.5411   1.6005   1.6128   1.9573

 ------ SPIN DOWN ----------


          k = 0.1667 0.2887 0.0000 ( 59267 PWs)   bands (ev):

   -68.1377 -68.1374 -39.6406 -39.6396 -39.6291 -39.6283 -39.6257 -39.6254
   -21.2657 -20.6848 -20.6692 -20.1283 -20.1098 -19.6117 -19.5961 -19.1181
   -18.7190 -18.7062 -18.4810 -18.4639 -18.2123 -18.1057 -18.0947 -17.8676
   -12.5047 -12.2304 -12.2184 -11.8433 -11.8367 -11.6793 -11.2166 -11.2049
   -10.4123 -10.3876 -10.1403 -10.1323  -9.6113  -9.6065  -8.8510  -8.8394
    -8.8341  -8.7918  -8.7774  -8.6168  -8.2178  -8.0516  -8.0207  -7.8514
    -7.8461  -7.4591  -7.4555  -7.2938  -7.2519  -7.2311  -7.2247  -6.9857
    -6.9712  -6.5713  -6.5418  -6.1748  -6.1726  -5.8749  -5.4384  -5.2936
    -5.2799  -5.2204  -4.9279  -4.8965  -4.5083  -4.3625  -4.3488  -3.9847
    -0.3756   0.7216   1.0514   1.1833   1.3089   1.3873   1.4514   1.5187
     1.5489   1.7922   1.9040   2.0904   2.1560   2.2326   2.2663   2.3212
     2.4109   2.4693   2.5222   2.5475   2.5708   2.6187

          k = 0.1667-0.4811 0.0000 ( 59291 PWs)   bands (ev):

   -68.1377 -68.1374 -39.6406 -39.6396 -39.6291 -39.6283 -39.6257 -39.6254
   -21.1351 -20.9316 -20.7412 -20.1793 -19.8231 -19.4854 -19.3356 -19.1930
   -19.0329 -18.7981 -18.6576 -18.5632 -18.1652 -18.1096 -17.9401 -17.7417
   -12.3688 -12.1340 -12.0652 -11.9271 -11.7036 -11.6767 -11.5731 -10.9619
   -10.9101 -10.6434 -10.5435  -9.8800  -9.7137  -9.3560  -9.1315  -8.6631
    -8.6435  -8.5727  -8.4099  -8.3759  -8.1819  -8.1243  -8.0854  -8.0692
    -7.7087  -7.6438  -7.5152  -7.4942  -7.3572  -7.1907  -7.0884  -6.8639
    -6.6417  -6.3936  -6.1811  -6.1774  -5.9763  -5.9487  -5.8038  -5.7491
    -5.4717  -5.4041  -5.2039  -5.0519  -4.4418  -4.3617  -4.0951  -3.7727
    -0.3445   0.6969   1.0003   1.0997   1.1402   1.2621   1.3474   1.7505
     1.8221   1.8865   2.0232   2.0872   2.1984   2.2487   2.2766   2.3291
     2.4046   2.4328   2.4750   2.4972   2.5543   2.6230

          k = 0.1667-0.0962 0.0000 ( 59226 PWs)   bands (ev):

   -68.1377 -68.1374 -39.6406 -39.6396 -39.6291 -39.6283 -39.6257 -39.6254
   -21.3322 -20.5543 -20.3629 -20.3598 -20.0063 -19.9993 -19.8246 -18.7463
   -18.7419 -18.3971 -18.3820 -18.3763 -18.2911 -18.2732 -18.0946 -18.0910
   -12.5310 -12.5199 -12.4282 -11.6015 -11.5976 -11.4517 -11.4359 -10.9458
   -10.9445  -9.9489  -9.9475  -9.6959  -9.3983  -9.3896  -9.2498  -9.2483
    -9.0624  -9.0606  -8.9239  -8.3428  -8.3416  -7.9234  -7.9180  -7.8788
    -7.8634  -7.7911  -7.6066  -7.5983  -7.1233  -7.1039  -6.9799  -6.9086
    -6.9060  -6.8598  -6.5509  -6.5493  -6.2780  -5.3407  -5.3299  -5.1633
    -5.0855  -4.8177  -4.7936  -4.7627  -4.6278  -4.6005  -4.3527  -4.3447
    -0.4048   0.7496   1.0461   1.1193   1.2375   1.4290   1.4927   1.5504
     1.7766   1.8426   1.9586   2.0397   2.0658   2.1377   2.2802   2.3265
     2.4175   2.4431   2.4796   2.5591   2.5832   2.6060

          k =-0.5000-0.8660 0.0000 ( 59292 PWs)   bands (ev):

   -68.1377 -68.1374 -39.6406 -39.6396 -39.6291 -39.6283 -39.6257 -39.6254
   -21.0756 -21.0582 -20.4871 -20.4843 -19.4488 -19.4420 -19.4277 -19.4251
   -19.0153 -19.0029 -18.3504 -18.3421 -18.3408 -18.3154 -17.8107 -17.8076
   -12.0978 -12.0905 -12.0851 -12.0690 -11.8992 -11.8937 -11.3542 -11.3427
   -10.2557 -10.2534 -10.1552 -10.1520 -10.1487 -10.1458  -8.5856  -8.5726
    -8.5720  -8.5639  -8.5534  -8.5479  -7.8853  -7.8827  -7.8809  -7.8801
    -7.8411  -7.8384  -7.7770  -7.7691  -7.5161  -7.5016  -6.6313  -6.6283
    -6.3538  -6.3363  -6.3080  -6.2999  -6.2137  -6.2035  -5.7160  -5.7032
    -5.5705  -5.5576  -4.7374  -4.7191  -4.7165  -4.6813  -3.8872  -3.8804
    -0.2645   0.3951   1.0230   1.0447   1.4034   1.4501   1.4663   1.5720
     1.7528   1.7633   2.0231   2.0435   2.1748   2.2517   2.3347   2.3675
     2.3987   2.4290   2.4975   2.5422   2.5556   2.6457

          k =-0.1667 0.2887 0.0000 ( 59267 PWs)   bands (ev):

   -68.1377 -68.1374 -39.6406 -39.6396 -39.6291 -39.6283 -39.6257 -39.6254
   -21.2657 -20.6848 -20.6692 -20.1283 -20.1098 -19.6117 -19.5961 -19.1181
   -18.7190 -18.7062 -18.4810 -18.4639 -18.2122 -18.1058 -18.0947 -17.8676
   -12.5047 -12.2304 -12.2184 -11.8434 -11.8367 -11.6793 -11.2166 -11.2048
   -10.4123 -10.3876 -10.1403 -10.1323  -9.6113  -9.6065  -8.8510  -8.8394
    -8.8341  -8.7918  -8.7774  -8.6167  -8.2179  -8.0516  -8.0207  -7.8514
    -7.8461  -7.4591  -7.4555  -7.2938  -7.2519  -7.2311  -7.2247  -6.9858
    -6.9713  -6.5713  -6.5418  -6.1748  -6.1725  -5.8749  -5.4385  -5.2936
    -5.2800  -5.2203  -4.9279  -4.8965  -4.5083  -4.3625  -4.3488  -3.9847
    -0.3756   0.7216   1.0515   1.1833   1.3089   1.3873   1.4514   1.5187
     1.5489   1.7922   1.9039   2.0905   2.1560   2.2327   2.2663   2.3213
     2.4109   2.4693   2.5221   2.5475   2.5710   2.6181

          k = 0.3333 0.0000 0.0000 ( 59267 PWs)   bands (ev):

   -68.1377 -68.1374 -39.6406 -39.6396 -39.6291 -39.6283 -39.6257 -39.6254
   -21.2654 -20.7025 -20.6513 -20.1274 -20.1098 -19.6294 -19.5797 -19.1196
   -18.7307 -18.6907 -18.4818 -18.4646 -18.2093 -18.1223 -18.0826 -17.8670
   -12.5043 -12.2301 -12.2188 -11.8499 -11.8321 -11.6777 -11.2290 -11.1926
   -10.4111 -10.3878 -10.1494 -10.1237  -9.6153  -9.6016  -8.8519  -8.8421
    -8.8295  -8.8067  -8.7629  -8.6174  -8.2192  -8.0883  -7.9836  -7.8501
    -7.8457  -7.4633  -7.4514  -7.2900  -7.2532  -7.2379  -7.2177  -6.9859
    -6.9722  -6.6061  -6.5108  -6.1770  -6.1697  -5.8782  -5.4382  -5.3073
    -5.2600  -5.2208  -4.9311  -4.8953  -4.5035  -4.3829  -4.3346  -3.9844
    -0.3328   0.5269   1.0407   1.1807   1.3391   1.4527   1.4783   1.5194
     1.5744   1.7715   2.0316   2.1546   2.2008   2.2167   2.2503   2.3947
     2.4162   2.4530   2.4954   2.5392   2.5678   2.6071

          k =-0.1667-0.4811 0.0000 ( 59291 PWs)   bands (ev):

   -68.1377 -68.1374 -39.6406 -39.6396 -39.6291 -39.6283 -39.6257 -39.6254
   -21.1351 -20.9316 -20.7412 -20.1793 -19.8231 -19.4854 -19.3356 -19.1930
   -19.0329 -18.7981 -18.6576 -18.5632 -18.1652 -18.1096 -17.9401 -17.7417
   -12.3688 -12.1340 -12.0652 -11.9271 -11.7035 -11.6767 -11.5731 -10.9619
   -10.9101 -10.6434 -10.5435  -9.8799  -9.7137  -9.3561  -9.1315  -8.6631
    -8.6434  -8.5727  -8.4099  -8.3759  -8.1818  -8.1243  -8.0854  -8.0693
    -7.7087  -7.6439  -7.5152  -7.4941  -7.3572  -7.1906  -7.0884  -6.8639
    -6.6418  -6.3937  -6.1811  -6.1774  -5.9763  -5.9487  -5.8038  -5.7491
    -5.4718  -5.4041  -5.2038  -5.0520  -4.4418  -4.3617  -4.0951  -3.7727
    -0.3445   0.6969   1.0003   1.0997   1.1402   1.2621   1.3473   1.7505
     1.8221   1.8865   2.0231   2.0872   2.1983   2.2488   2.2766   2.3291
     2.4047   2.4327   2.4750   2.4972   2.5538   2.6239

          k = 0.5000-0.0962 0.0000 ( 59291 PWs)   bands (ev):

   -68.1377 -68.1374 -39.6406 -39.6396 -39.6291 -39.6282 -39.6257 -39.6254
   -21.1329 -20.9377 -20.7372 -20.1780 -19.8233 -19.4863 -19.3409 -19.1890
   -19.0337 -18.7979 -18.6504 -18.5680 -18.1568 -18.1215 -17.9376 -17.7416
   -12.3677 -12.1346 -12.0635 -11.9305 -11.7129 -11.6654 -11.5749 -10.9626
   -10.9080 -10.6419 -10.5454  -9.8782  -9.7142  -9.3568  -9.1310  -8.6567
    -8.6441  -8.5714  -8.4132  -8.3944  -8.1800  -8.1121  -8.0959  -8.0596
    -7.7056  -7.6445  -7.5145  -7.4952  -7.3539  -7.1918  -7.0889  -6.8645
    -6.6420  -6.3959  -6.1930  -6.1777  -5.9669  -5.9483  -5.8032  -5.7504
    -5.4728  -5.4023  -5.1910  -5.0611  -4.4277  -4.3800  -4.0918  -3.7731
    -0.2654   0.4001   0.9948   1.0985   1.1420   1.2830   1.5921   1.7312
     1.7885   2.0144   2.0360   2.1140   2.1480   2.2380   2.3175   2.3550
     2.4212   2.4540   2.4923   2.5324   2.5760   2.6094

          k =-0.3333-0.3849 0.0000 ( 59291 PWs)   bands (ev):

   -68.1377 -68.1374 -39.6406 -39.6396 -39.6291 -39.6282 -39.6257 -39.6254
   -21.1337 -20.9356 -20.7387 -20.1779 -19.8246 -19.4852 -19.3370 -19.1913
   -19.0362 -18.7965 -18.6515 -18.5674 -18.1582 -18.1197 -17.9377 -17.7417
   -12.3684 -12.1327 -12.0656 -11.9293 -11.7043 -11.6753 -11.5740 -10.9623
   -10.9081 -10.6415 -10.5460  -9.8787  -9.7143  -9.3566  -9.1315  -8.6588
    -8.6428  -8.5726  -8.4112  -8.3878  -8.1816  -8.1165  -8.0855  -8.0707
    -7.7060  -7.6429  -7.5202  -7.4901  -7.3536  -7.1919  -7.0893  -6.8677
    -6.6403  -6.3930  -6.1836  -6.1795  -5.9726  -5.9474  -5.8035  -5.7567
    -5.4726  -5.3993  -5.1914  -5.0610  -4.4293  -4.3784  -4.0916  -3.7731
    -0.2955   0.4889   1.0027   1.0670   1.1837   1.2639   1.4785   1.7619
     1.8899   1.9635   2.0194   2.0662   2.1421   2.2538   2.3071   2.3489
     2.3972   2.4535   2.4916   2.5332   2.5754   2.5937

          k = 0.5000 0.0962 0.0000 ( 59291 PWs)   bands (ev):

   -68.1377 -68.1374 -39.6406 -39.6396 -39.6291 -39.6282 -39.6257 -39.6254
   -21.1329 -20.9377 -20.7372 -20.1780 -19.8233 -19.4863 -19.3409 -19.1890
   -19.0337 -18.7979 -18.6504 -18.5680 -18.1568 -18.1215 -17.9376 -17.7416
   -12.3677 -12.1346 -12.0635 -11.9305 -11.7129 -11.6654 -11.5749 -10.9626
   -10.9080 -10.6420 -10.5455  -9.8783  -9.7143  -9.3568  -9.1310  -8.6567
    -8.6441  -8.5714  -8.4132  -8.3944  -8.1801  -8.1121  -8.0959  -8.0595
    -7.7056  -7.6444  -7.5145  -7.4953  -7.3539  -7.1918  -7.0888  -6.8645
    -6.6419  -6.3959  -6.1930  -6.1777  -5.9669  -5.9482  -5.8033  -5.7504
    -5.4729  -5.4024  -5.1910  -5.0611  -4.4277  -4.3800  -4.0918  -3.7731
    -0.2654   0.4001   0.9948   1.0985   1.1420   1.2830   1.5920   1.7312
     1.7885   2.0144   2.0359   2.1140   2.1480   2.2379   2.3175   2.3549
     2.4211   2.4540   2.4920   2.5322   2.5751   2.6119

          k =-0.3333 0.3849 0.0000 ( 59291 PWs)   bands (ev):

   -68.1377 -68.1374 -39.6406 -39.6396 -39.6291 -39.6282 -39.6257 -39.6254
   -21.1337 -20.9356 -20.7387 -20.1779 -19.8246 -19.4852 -19.3370 -19.1913
   -19.0362 -18.7965 -18.6515 -18.5674 -18.1582 -18.1197 -17.9377 -17.7417
   -12.3684 -12.1327 -12.0656 -11.9293 -11.7043 -11.6753 -11.5740 -10.9623
   -10.9081 -10.6415 -10.5460  -9.8787  -9.7143  -9.3566  -9.1315  -8.6588
    -8.6429  -8.5726  -8.4112  -8.3878  -8.1816  -8.1165  -8.0856  -8.0707
    -7.7060  -7.6429  -7.5202  -7.4900  -7.3536  -7.1919  -7.0894  -6.8677
    -6.6404  -6.3930  -6.1836  -6.1795  -5.9726  -5.9475  -5.8035  -5.7567
    -5.4725  -5.3993  -5.1915  -5.0610  -4.4293  -4.3784  -4.0916  -3.7731
    -0.2955   0.4889   1.0027   1.0670   1.1838   1.2639   1.4785   1.7619
     1.8900   1.9635   2.0194   2.0662   2.1421   2.2538   2.3070   2.3489
     2.3973   2.4534   2.4914   2.5330   2.5735   2.5929

          k =-0.1667-0.0962 0.0000 ( 59226 PWs)   bands (ev):

   -68.1377 -68.1374 -39.6406 -39.6396 -39.6291 -39.6283 -39.6257 -39.6254
   -21.3322 -20.5543 -20.3629 -20.3598 -20.0063 -19.9993 -19.8246 -18.7463
   -18.7419 -18.3971 -18.3820 -18.3763 -18.2911 -18.2731 -18.0946 -18.0910
   -12.5310 -12.5199 -12.4282 -11.6015 -11.5976 -11.4517 -11.4359 -10.9458
   -10.9445  -9.9489  -9.9476  -9.6958  -9.3983  -9.3896  -9.2498  -9.2484
    -9.0624  -9.0607  -8.9239  -8.3428  -8.3417  -7.9234  -7.9180  -7.8788
    -7.8633  -7.7911  -7.6066  -7.5983  -7.1233  -7.1039  -6.9800  -6.9086
    -6.9060  -6.8599  -6.5509  -6.5492  -6.2780  -5.3408  -5.3299  -5.1632
    -5.0856  -4.8177  -4.7936  -4.7627  -4.6278  -4.6005  -4.3527  -4.3447
    -0.4048   0.7496   1.0461   1.1192   1.2376   1.4290   1.4928   1.5504
     1.7766   1.8425   1.9585   2.0397   2.0659   2.1377   2.2803   2.3264
     2.4177   2.4431   2.4797   2.5590   2.5834   2.6065

          k =-0.0000-0.1925 0.0000 ( 59226 PWs)   bands (ev):

   -68.1377 -68.1374 -39.6406 -39.6396 -39.6291 -39.6282 -39.6257 -39.6254
   -21.3322 -20.5501 -20.3765 -20.3531 -20.0085 -19.9914 -19.8275 -18.7521
   -18.7329 -18.4178 -18.3827 -18.3691 -18.2758 -18.2734 -18.1038 -18.0859
   -12.5308 -12.5207 -12.4277 -11.6071 -11.5931 -11.4492 -11.4362 -10.9487
   -10.9431  -9.9521  -9.9442  -9.6961  -9.3989  -9.3880  -9.2508  -9.2479
    -9.0617  -9.0616  -8.9243  -8.3448  -8.3389  -7.9241  -7.9177  -7.8699
    -7.8584  -7.7924  -7.6425  -7.5824  -7.1254  -7.0863  -6.9786  -6.9119
    -6.9041  -6.8678  -6.5543  -6.5453  -6.2784  -5.3535  -5.3106  -5.1636
    -5.0852  -4.8518  -4.7902  -4.7524  -4.6096  -4.5984  -4.3711  -4.3328
    -0.4216   0.8735   1.0777   1.0973   1.2387   1.3788   1.4596   1.5477
     1.7260   1.8782   1.9255   1.9464   2.0146   2.1614   2.2735   2.3124
     2.3635   2.4591   2.5279   2.5463   2.6110   2.6677

          k = 0.5000-0.8660 0.0000 ( 59292 PWs)   bands (ev):

   -68.1377 -68.1374 -39.6406 -39.6396 -39.6291 -39.6283 -39.6257 -39.6254
   -21.0756 -21.0582 -20.4872 -20.4843 -19.4489 -19.4420 -19.4277 -19.4251
   -19.0153 -19.0028 -18.3503 -18.3422 -18.3409 -18.3153 -17.8107 -17.8076
   -12.0977 -12.0906 -12.0852 -12.0689 -11.8992 -11.8937 -11.3542 -11.3427
   -10.2557 -10.2535 -10.1552 -10.1520 -10.1487 -10.1458  -8.5856  -8.5726
    -8.5720  -8.5640  -8.5533  -8.5479  -7.8853  -7.8827  -7.8809  -7.8801
    -7.8412  -7.8384  -7.7770  -7.7691  -7.5162  -7.5016  -6.6312  -6.6282
    -6.3538  -6.3363  -6.3080  -6.2999  -6.2137  -6.2034  -5.7161  -5.7032
    -5.5705  -5.5577  -4.7373  -4.7191  -4.7166  -4.6813  -3.8872  -3.8804
    -0.2645   0.3952   1.0230   1.0447   1.4034   1.4501   1.4662   1.5719
     1.7525   1.7634   2.0232   2.0434   2.1748   2.2515   2.3348   2.3675
     2.3986   2.4291   2.4976   2.5416   2.5555   2.6421

          k =-1.0000 0.0000 0.0000 ( 59292 PWs)   bands (ev):

   -68.1377 -68.1374 -39.6406 -39.6396 -39.6291 -39.6283 -39.6257 -39.6254
   -21.0917 -21.0399 -20.4984 -20.4766 -19.4601 -19.4280 -19.4264 -19.4242
   -19.0302 -18.9902 -18.3881 -18.3433 -18.3151 -18.3022 -17.8190 -17.8008
   -12.1262 -12.0927 -12.0665 -12.0538 -11.9050 -11.8886 -11.3686 -11.3296
   -10.2684 -10.2528 -10.1547 -10.1521 -10.1438 -10.1406  -8.6178  -8.5958
    -8.5746  -8.5487  -8.5392  -8.5095  -7.8992  -7.8927  -7.8792  -7.8724
    -7.8340  -7.8328  -7.8041  -7.7511  -7.5328  -7.4868  -6.6355  -6.6224
    -6.3734  -6.3131  -6.3042  -6.2946  -6.2274  -6.1923  -5.7362  -5.6889
    -5.5848  -5.5433  -4.8006  -4.7108  -4.6841  -4.6600  -3.9027  -3.8666
    -0.3647   0.8262   1.0161   1.0824   1.2453   1.3800   1.3935   1.6021
     1.6028   1.6935   1.8769   2.1213   2.1628   2.2431   2.2816   2.3111
     2.4042   2.4805   2.4985   2.5581   2.6243   2.6261

     the Fermi energy is    -0.8561 ev

!    total energy              =   -1133.81562769 Ry

     total all-electron energy =     -6753.491331 Ry
     estimated scf accuracy    <       0.00000007 Ry
     smearing contrib. (-TS)   =      -0.00000000 Ry
     internal energy E=F+TS    =   -1133.81562769 Ry

     The total energy is F=E-TS. E is the sum of the following terms:
     one-electron contribution =   -3920.94819461 Ry
     hartree contribution      =    1989.02273761 Ry
     xc contribution           =    -186.19842667 Ry
     ewald contribution        =    1343.67772127 Ry
     DFT-D3 Dispersion         =      -0.14074315 Ry
     one-center paw contrib.   =    -359.22872214 Ry

     total magnetization       =    12.00 Bohr mag/cell
     absolute magnetization    =    12.00 Bohr mag/cell

     convergence has been achieved in  12 iterations

     Writing output data file ./mytmp/Crdimer0.3-0.4.save/
 
     init_run     :     18.82s CPU     20.25s WALL (       1 calls)
     electrons    :    479.86s CPU    520.26s WALL (       1 calls)

     Called by init_run:
     wfcinit      :     13.78s CPU     14.63s WALL (       1 calls)
     potinit      :      1.57s CPU      1.62s WALL (       1 calls)
     hinit0       :      1.53s CPU      1.64s WALL (       1 calls)

     Called by electrons:
     c_bands      :    381.00s CPU    404.60s WALL (      12 calls)
     sum_band     :     69.93s CPU     79.82s WALL (      12 calls)
     v_of_rho     :      6.59s CPU      7.23s WALL (      13 calls)
     newd         :     15.67s CPU     21.92s WALL (      13 calls)
     PAW_pot      :      6.42s CPU      6.51s WALL (      13 calls)
     mix_rho      :      0.84s CPU      0.95s WALL (      12 calls)

     Called by c_bands:
     init_us_2    :      4.36s CPU      4.39s WALL (     750 calls)
     cegterg      :    370.43s CPU    393.95s WALL (     360 calls)

     Called by *egterg:
     cdiaghg      :     23.02s CPU     36.05s WALL (    2428 calls)
     h_psi        :    222.94s CPU    232.20s WALL (    2458 calls)
     s_psi        :     24.31s CPU     24.43s WALL (    2458 calls)
     g_psi        :      0.61s CPU      0.62s WALL (    2068 calls)

     Called by h_psi:
     h_psi:calbec :     26.35s CPU     27.01s WALL (    2458 calls)
     vloc_psi     :    169.49s CPU    177.82s WALL (    2458 calls)
     add_vuspsi   :     25.05s CPU     25.28s WALL (    2458 calls)

     General routines
     calbec       :     34.56s CPU     35.46s WALL (    2818 calls)
     fft          :      8.49s CPU     12.40s WALL (     319 calls)
     ffts         :      0.11s CPU      0.13s WALL (      50 calls)
     fftw         :    172.17s CPU    180.46s WALL (  226228 calls)
     interpolate  :      0.37s CPU      0.45s WALL (      26 calls)
 
     Parallel routines
     fft_scatt_xy :     27.39s CPU     28.48s WALL (  226597 calls)
     fft_scatt_yz :     72.47s CPU     80.21s WALL (  226597 calls)
 
     PWSCF        :   8m20.62s CPU   9m 5.19s WALL

 
   This run was terminated on:   1: 6:21  30Mar2021            

=------------------------------------------------------------------------------=
   JOB DONE.
=------------------------------------------------------------------------------=
