
     Program PWSCF v.6.7MaX starts on 29Mar2021 at 23:26:27 

     This program is part of the open-source Quantum ESPRESSO suite
     for quantum simulation of materials; please cite
         "P. Giannozzi et al., J. Phys.:Condens. Matter 21 395502 (2009);
         "P. Giannozzi et al., J. Phys.:Condens. Matter 29 465901 (2017);
          URL http://www.quantum-espresso.org", 
     in publications or presentations arising from this work. More details at
     http://www.quantum-espresso.org/quote

     Parallel version (MPI), running on    48 processors

     MPI processes distributed on     1 nodes
     R & G space division:  proc/nbgrp/npool/nimage =      48
     Reading input from Crdimer0.28-0.0.scf.in

     Current dimensions of program PWSCF are:
     Max number of different atomic species (ntypx) = 10
     Max number of k-points (npk) =  40000
     Max angular momentum in pseudopotentials (lmaxx) =  3
     file N.pbe-n-kjpaw_psl.1.0.0.UPF: wavefunction(s)  2S renormalized
     file Cr.pbe-spn-kjpaw_psl.1.0.0.UPF: wavefunction(s)  3S 3P 3D renormalized
     file Cr.pbe-spn-kjpaw_psl.1.0.0.UPF: wavefunction(s)  3S 3P 3D renormalized

     --------------------------------------------
     Parameters for DFT-D3 Dispersion Correction:
     --------------------------------------------
       Reference C6 values for interpolation: 

         atom   Coordination number   C6
         B          0.000           214.36
         B          0.971           150.74
         B          1.944           106.23
         B          2.913            62.89
         B          4.586            56.06
         N          0.000            50.54
         N          0.994            44.25
         N          2.014            39.35
         N          2.990            31.16
         Cr1        0.000          1381.48
         Cr1        1.827           571.38
         Cr1       10.619           306.69
         Cr2        0.000          1381.48
         Cr2        1.827           571.38
         Cr2       10.619           306.69

       Values used:

         atom   Coordination number  R0_AB[au]  C6      C8
         B          3.339            3.039     62.89   2505.93
         B          3.339            3.039     62.89   2505.93
         B          3.338            3.039     62.89   2505.93
         B          3.344            3.039     62.89   2505.80
         B          3.337            3.039     62.89   2505.96
         B          3.337            3.039     62.89   2505.96
         N          3.135            2.478     31.22    688.69
         N          3.134            2.478     31.22    688.70
         N          3.141            2.478     31.22    688.64
         N          3.148            2.478     31.21    688.57
         N          3.134            2.478     31.22    688.70
         N          3.134            2.478     31.22    688.70
         N          3.135            2.478     31.22    688.69
         N          3.137            2.478     31.22    688.67
         N          3.135            2.478     31.22    688.69
         B          3.335            3.039     62.89   2506.00
         B          3.339            3.039     62.89   2505.93
         B          3.337            3.039     62.89   2505.96
         B          3.337            3.039     62.89   2505.96
         B          3.339            3.039     62.89   2505.93
         B          3.335            3.039     62.89   2506.00
         N          3.135            2.478     31.22    688.69
         B          3.335            3.039     62.89   2506.01
         B          3.335            3.039     62.89   2506.01
         B          3.381            3.039     62.86   2504.69
         N          3.134            2.478     31.22    688.70
         N          3.134            2.478     31.22    688.70
         N          3.143            2.478     31.21    688.61
         N          3.143            2.478     31.21    688.61
         N          3.141            2.478     31.22    688.64
         N          3.148            2.478     31.21    688.57
         B          3.381            3.039     62.86   2504.69
         Cr1        0.109            3.252   1381.48 127494.69
         Cr2        0.109            3.252   1381.48 127494.69

         Molecular C6 ( Ry / a.u.^6 ) =     79164.15


     Subspace diagonalization in iterative solution of the eigenvalue problem:
     one sub-group per band group will be used
     scalapack distributed-memory algorithm (size of sub-group:  6*  6 procs)

 
     Parallelization info
     --------------------
     sticks:   dense  smooth     PW     G-vecs:    dense   smooth      PW
     Min         235      98     26                36277     9874    1408
     Max         236      99     27                36282     9883    1425
     Sum       11311    4741   1285              1741401   474235   68095
 


     bravais-lattice index     =            4
     lattice parameter (alat)  =      18.9275  a.u.
     unit-cell volume          =   10553.3021 (a.u.)^3
     number of atoms/cell      =           34
     number of atomic types    =            4
     number of electrons       =       156.00
     number of Kohn-Sham states=           94
     kinetic-energy cutoff     =      48.0000  Ry
     charge density cutoff     =     457.0000  Ry
     scf convergence threshold =      1.0E-07
     mixing beta               =       0.5000
     number of iterations used =            8  plain     mixing
     Exchange-correlation= SLA  PW   PBX  PBC
                           (   1   4   3   4   0   0   0)

     celldm(1)=  18.927497  celldm(2)=   0.000000  celldm(3)=   1.797125
     celldm(4)=   0.000000  celldm(5)=   0.000000  celldm(6)=   0.000000

     crystal axes: (cart. coord. in units of alat)
               a(1) = (   1.000000   0.000000   0.000000 )  
               a(2) = (  -0.500000   0.866025   0.000000 )  
               a(3) = (   0.000000   0.000000   1.797125 )  

     reciprocal axes: (cart. coord. in units 2 pi/alat)
               b(1) = (  1.000000  0.577350  0.000000 )  
               b(2) = (  0.000000  1.154701  0.000000 )  
               b(3) = (  0.000000  0.000000  0.556444 )  


     PseudoPot. # 1 for B  read from file:
     /home/sf05/q-e-qe-6.7MaX-Release/pseudo/B.pbe-n-kjpaw_psl.1.0.0.UPF
     MD5 check sum: d9c678ba5d3b2fd7b74e61139c9288d8
     Pseudo is Projector augmented-wave + core cor, Zval =  3.0
     Generated using "atomic" code by A. Dal Corso  v.5.1.2
     Shape of augmentation charge: PSQ
     Using radial grid of 1059 points,  4 beta functions with: 
                l(1) =   0
                l(2) =   0
                l(3) =   1
                l(4) =   1
     Q(r) pseudized with 0 coefficients 


     PseudoPot. # 2 for N  read from file:
     /home/sf05/q-e-qe-6.7MaX-Release/pseudo/N.pbe-n-kjpaw_psl.1.0.0.UPF
     MD5 check sum: e0e4e94a9c4025c5b51bd7d8793849bd
     Pseudo is Projector augmented-wave + core cor, Zval =  5.0
     Generated using "atomic" code by A. Dal Corso  v.5.1.2
     Shape of augmentation charge: PSQ
     Using radial grid of 1085 points,  4 beta functions with: 
                l(1) =   0
                l(2) =   0
                l(3) =   1
                l(4) =   1
     Q(r) pseudized with 0 coefficients 


     PseudoPot. # 3 for Cr read from file:
     /home/sf05/q-e-qe-6.7MaX-Release/pseudo/Cr.pbe-spn-kjpaw_psl.1.0.0.UPF
     MD5 check sum: 198f1a2427a48552563eee314eba32ba
     Pseudo is Projector augmented-wave + core cor, Zval = 14.0
     Generated using &quot;atomic&quot; code by A. Dal Corso  v.6.3
     Shape of augmentation charge: PSQ
     Using radial grid of 1183 points,  6 beta functions with: 
                l(1) =   0
                l(2) =   0
                l(3) =   1
                l(4) =   1
                l(5) =   2
                l(6) =   2
     Q(r) pseudized with 0 coefficients 


     PseudoPot. # 4 for Cr read from file:
     /home/sf05/q-e-qe-6.7MaX-Release/pseudo/Cr.pbe-spn-kjpaw_psl.1.0.0.UPF
     MD5 check sum: 198f1a2427a48552563eee314eba32ba
     Pseudo is Projector augmented-wave + core cor, Zval = 14.0
     Generated using &quot;atomic&quot; code by A. Dal Corso  v.6.3
     Shape of augmentation charge: PSQ
     Using radial grid of 1183 points,  6 beta functions with: 
                l(1) =   0
                l(2) =   0
                l(3) =   1
                l(4) =   1
                l(5) =   2
                l(6) =   2
     Q(r) pseudized with 0 coefficients 


     atomic species   valence    mass     pseudopotential
        B              3.00    10.81100     B ( 1.00)
        N              5.00    14.00674     N ( 1.00)
        Cr1           14.00    51.99610     Cr( 1.00)
        Cr2           14.00    51.99610     Cr( 1.00)

     Starting magnetic structure 
     atomic species   magnetization
        B            0.000
        N            0.000
        Cr1          1.000
        Cr2          1.000

     No symmetry found



   Cartesian axes

     site n.     atom                  positions (alat units)
         1           B   tau(   1) = (  -0.1250000   0.2165064   0.8985623  )
         2           B   tau(   2) = (   0.3750000   0.6495191   0.8985623  )
         3           B   tau(   3) = (   0.2500000   0.0000000   0.8985623  )
         4           B   tau(   4) = (   0.7500000   0.0000000   0.8985623  )
         5           B   tau(   5) = (   0.1250000   0.2165064   0.8985623  )
         6           B   tau(   6) = (  -0.3750000   0.6495191   0.8985623  )
         7           N   tau(   7) = (   0.7500005   0.2886748   0.8985623  )
         8           N   tau(   8) = (   0.3750005   0.5051812   0.8985623  )
         9           N   tau(   9) = (   0.3750005   0.0721685   0.8985623  )
        10           N   tau(  10) = (   0.6250005   0.0721685   0.8985623  )
        11           N   tau(  11) = (   0.2500005   0.2886748   0.8985623  )
        12           N   tau(  12) = (   0.6250005   0.5051812   0.8985623  )
        13           N   tau(  13) = (   0.0000005   0.2886748   0.8985623  )
        14           N   tau(  14) = (   0.2500005   0.7216875   0.8985623  )
        15           N   tau(  15) = (  -0.2499995   0.7216875   0.8985623  )
        16           B   tau(  16) = (   0.0000000   0.4330127   0.8985623  )
        17           B   tau(  17) = (   0.1250000   0.6495191   0.8985623  )
        18           B   tau(  18) = (  -0.1250000   0.6495191   0.8985623  )
        19           B   tau(  19) = (   0.3750000   0.2165064   0.8985623  )
        20           B   tau(  20) = (   0.6250000   0.2165064   0.8985623  )
        21           B   tau(  21) = (   0.5000000   0.4330127   0.8985623  )
        22           N   tau(  22) = (   0.5000005   0.2886748   0.8985623  )
        23           B   tau(  23) = (  -0.2500000   0.4330127   0.8985623  )
        24           B   tau(  24) = (   0.2500000   0.4330127   0.8985623  )
        25           B   tau(  25) = (   0.5000000   0.0000000   0.8985623  )
        26           N   tau(  26) = (  -0.1249995   0.5051812   0.8985623  )
        27           N   tau(  27) = (   0.1250005   0.5051812   0.8985623  )
        28           N   tau(  28) = (   0.0000005   0.7216875   0.8985623  )
        29           N   tau(  29) = (   0.5000005   0.7216875   0.8985623  )
        30           N   tau(  30) = (   0.1250005   0.0721685   0.8985623  )
        31           N   tau(  31) = (   0.8750005   0.0721685   0.8985623  )
        32           B   tau(  32) = (   0.0000000   0.0000000   0.8985623  )
        33           Cr1 tau(  33) = (   0.5300000   0.0000000   1.2040735  )
        34           Cr2 tau(  34) = (  -0.0300000   0.0000000   1.2040735  )

     number of k points=    15  Gaussian smearing, width (Ry)=  0.0000
                       cart. coord. in units 2pi/alat
        k(    1) = (   0.1666667   0.2886751   0.0000000), wk =   0.0740741
        k(    2) = (   0.1666667  -0.4811252   0.0000000), wk =   0.0740741
        k(    3) = (   0.1666667  -0.0962250   0.0000000), wk =   0.0740741
        k(    4) = (  -0.5000000  -0.8660254   0.0000000), wk =   0.0370370
        k(    5) = (  -0.1666667   0.2886751   0.0000000), wk =   0.0740741
        k(    6) = (   0.3333333   0.0000000   0.0000000), wk =   0.0740741
        k(    7) = (  -0.1666667  -0.4811252   0.0000000), wk =   0.0740741
        k(    8) = (   0.5000000  -0.0962250   0.0000000), wk =   0.0740741
        k(    9) = (  -0.3333333  -0.3849002   0.0000000), wk =   0.0740741
        k(   10) = (   0.5000000   0.0962250   0.0000000), wk =   0.0740741
        k(   11) = (  -0.3333333   0.3849002   0.0000000), wk =   0.0740741
        k(   12) = (  -0.1666667  -0.0962250   0.0000000), wk =   0.0740741
        k(   13) = (  -0.0000000  -0.1924501   0.0000000), wk =   0.0740741
        k(   14) = (   0.5000000  -0.8660254   0.0000000), wk =   0.0370370
        k(   15) = (  -1.0000000   0.0000000   0.0000000), wk =   0.0370370

     Dense  grid:  1741401 G-vectors     FFT dimensions: ( 135, 135, 240)

     Smooth grid:   474235 G-vectors     FFT dimensions: (  90,  90, 160)

     Estimated max dynamical RAM per process >     218.62 MB

     Estimated total dynamical RAM >      10.25 GB
     Generating pointlists ...
     new r_m :   0.0595 (alat units)  1.1269 (a.u.) for type    1
     new r_m :   0.0595 (alat units)  1.1269 (a.u.) for type    2
     new r_m :   0.1266 (alat units)  2.3968 (a.u.) for type    3
     new r_m :   0.1266 (alat units)  2.3968 (a.u.) for type    4

     Initial potential from superposition of free atoms

     starting charge  155.99382, renormalised to  156.00000

     negative rho (up, down):  6.529E-03 4.655E-04
     Starting wfcs are  148 randomized atomic wfcs
     Checking if some PAW data can be deallocated... 

     total cpu time spent up to now is       20.6 secs

     Self-consistent Calculation

     iteration #  1     ecut=    48.00 Ry     beta= 0.50
     Davidson diagonalization with overlap
     ethr =  1.00E-02,  avg # of iterations =  2.9

     negative rho (up, down):  4.713E-03 2.945E-03

     total cpu time spent up to now is       63.8 secs

     total energy              =   -1130.76515636 Ry
     estimated scf accuracy    <      11.37694691 Ry

     total magnetization       =    12.00 Bohr mag/cell
     absolute magnetization    =    12.15 Bohr mag/cell

     iteration #  2     ecut=    48.00 Ry     beta= 0.50
     Davidson diagonalization with overlap
     ethr =  7.29E-03,  avg # of iterations =  2.8

     negative rho (up, down):  6.824E-03 1.036E-02

     total cpu time spent up to now is      104.3 secs

     total energy              =   -1133.16251490 Ry
     estimated scf accuracy    <       3.01725133 Ry

     total magnetization       =    12.00 Bohr mag/cell
     absolute magnetization    =    12.01 Bohr mag/cell

     iteration #  3     ecut=    48.00 Ry     beta= 0.50
     Davidson diagonalization with overlap
     ethr =  1.93E-03,  avg # of iterations =  6.1

     negative rho (up, down):  3.792E-03 6.787E-03

     total cpu time spent up to now is      143.7 secs

     total energy              =   -1133.65559658 Ry
     estimated scf accuracy    <       0.57787976 Ry

     total magnetization       =    12.00 Bohr mag/cell
     absolute magnetization    =    12.05 Bohr mag/cell

     iteration #  4     ecut=    48.00 Ry     beta= 0.50
     Davidson diagonalization with overlap
     ethr =  3.70E-04,  avg # of iterations =  8.2

     negative rho (up, down):  7.046E-03 1.447E-02

     total cpu time spent up to now is      185.9 secs

     total energy              =   -1133.79064724 Ry
     estimated scf accuracy    <       0.27934140 Ry

     total magnetization       =    12.00 Bohr mag/cell
     absolute magnetization    =    12.00 Bohr mag/cell

     iteration #  5     ecut=    48.00 Ry     beta= 0.50
     Davidson diagonalization with overlap
     ethr =  1.79E-04,  avg # of iterations =  9.0

     negative rho (up, down):  4.505E-03 9.993E-03

     total cpu time spent up to now is      228.6 secs

     total energy              =   -1133.80846512 Ry
     estimated scf accuracy    <       0.01628235 Ry

     total magnetization       =    12.00 Bohr mag/cell
     absolute magnetization    =    12.01 Bohr mag/cell

     iteration #  6     ecut=    48.00 Ry     beta= 0.50
     Davidson diagonalization with overlap
     c_bands:  1 eigenvalues not converged
     c_bands:  1 eigenvalues not converged
     c_bands:  1 eigenvalues not converged
     c_bands:  1 eigenvalues not converged
     c_bands:  2 eigenvalues not converged
     ethr =  1.04E-05,  avg # of iterations = 12.8

     negative rho (up, down):  3.354E-03 7.808E-03

     total cpu time spent up to now is      291.5 secs

     total energy              =   -1133.81168234 Ry
     estimated scf accuracy    <       0.00529625 Ry

     total magnetization       =    12.00 Bohr mag/cell
     absolute magnetization    =    12.01 Bohr mag/cell

     iteration #  7     ecut=    48.00 Ry     beta= 0.50
     Davidson diagonalization with overlap
     c_bands:  1 eigenvalues not converged
     ethr =  3.40E-06,  avg # of iterations =  8.7

     negative rho (up, down):  3.013E-03 7.497E-03

     total cpu time spent up to now is      337.2 secs

     total energy              =   -1133.81237621 Ry
     estimated scf accuracy    <       0.00055259 Ry

     total magnetization       =    12.00 Bohr mag/cell
     absolute magnetization    =    12.01 Bohr mag/cell

     iteration #  8     ecut=    48.00 Ry     beta= 0.50
     Davidson diagonalization with overlap
     ethr =  3.54E-07,  avg # of iterations =  4.9

     negative rho (up, down):  2.886E-03 7.331E-03

     total cpu time spent up to now is      375.4 secs

     total energy              =   -1133.81248465 Ry
     estimated scf accuracy    <       0.00004637 Ry

     total magnetization       =    12.00 Bohr mag/cell
     absolute magnetization    =    12.01 Bohr mag/cell

     iteration #  9     ecut=    48.00 Ry     beta= 0.50
     Davidson diagonalization with overlap
     ethr =  2.97E-08,  avg # of iterations =  4.9

     negative rho (up, down):  2.850E-03 7.301E-03

     total cpu time spent up to now is      420.2 secs

     total energy              =   -1133.81255270 Ry
     estimated scf accuracy    <       0.00001885 Ry

     total magnetization       =    12.00 Bohr mag/cell
     absolute magnetization    =    12.00 Bohr mag/cell

     iteration # 10     ecut=    48.00 Ry     beta= 0.50
     Davidson diagonalization with overlap
     ethr =  1.21E-08,  avg # of iterations =  2.0

     negative rho (up, down):  2.840E-03 7.299E-03

     total cpu time spent up to now is      454.3 secs

     total energy              =   -1133.81256939 Ry
     estimated scf accuracy    <       0.00000188 Ry

     total magnetization       =    12.00 Bohr mag/cell
     absolute magnetization    =    12.00 Bohr mag/cell

     iteration # 11     ecut=    48.00 Ry     beta= 0.50
     Davidson diagonalization with overlap
     ethr =  1.21E-09,  avg # of iterations =  4.4

     negative rho (up, down):  2.837E-03 7.300E-03

     total cpu time spent up to now is      500.0 secs

     total energy              =   -1133.81257952 Ry
     estimated scf accuracy    <       0.00000065 Ry

     total magnetization       =    12.00 Bohr mag/cell
     absolute magnetization    =    12.00 Bohr mag/cell

     iteration # 12     ecut=    48.00 Ry     beta= 0.50
     Davidson diagonalization with overlap
     ethr =  4.20E-10,  avg # of iterations =  2.2

     negative rho (up, down):  2.834E-03 7.305E-03
 
     Magnetic moment per site:
     atom:    1    charge:    0.8804    magn:    0.0007    constr:    0.0000
     atom:    2    charge:    0.8804    magn:    0.0005    constr:    0.0000
     atom:    3    charge:    0.8803    magn:    0.0007    constr:    0.0000
     atom:    4    charge:    0.8804    magn:    0.0009    constr:    0.0000
     atom:    5    charge:    0.8804    magn:    0.0004    constr:    0.0000
     atom:    6    charge:    0.8804    magn:    0.0006    constr:    0.0000
     atom:    7    charge:    2.8609    magn:    0.0006    constr:    0.0000
     atom:    8    charge:    2.8609    magn:    0.0004    constr:    0.0000
     atom:    9    charge:    2.8606    magn:    0.0065    constr:    0.0000
     atom:   10    charge:    2.8606    magn:    0.0096    constr:    0.0000
     atom:   11    charge:    2.8609    magn:    0.0003    constr:    0.0000
     atom:   12    charge:    2.8609    magn:    0.0003    constr:    0.0000
     atom:   13    charge:    2.8598    magn:    0.0011    constr:    0.0000
     atom:   14    charge:    2.8597    magn:    0.0037    constr:    0.0000
     atom:   15    charge:    2.8598    magn:    0.0016    constr:    0.0000
     atom:   16    charge:    0.8800    magn:    0.0002    constr:    0.0000
     atom:   17    charge:    0.8801    magn:    0.0005    constr:    0.0000
     atom:   18    charge:    0.8800    magn:    0.0006    constr:    0.0000
     atom:   19    charge:    0.8798    magn:    0.0004    constr:    0.0000
     atom:   20    charge:    0.8798    magn:    0.0007    constr:    0.0000
     atom:   21    charge:    0.8798    magn:    0.0002    constr:    0.0000
     atom:   22    charge:    2.8611    magn:    0.0011    constr:    0.0000
     atom:   23    charge:    0.8799    magn:    0.0001    constr:    0.0000
     atom:   24    charge:    0.8799    magn:    0.0000    constr:    0.0000
     atom:   25    charge:    0.8809    magn:    0.0004    constr:    0.0000
     atom:   26    charge:    2.8597    magn:    0.0003    constr:    0.0000
     atom:   27    charge:    2.8598    magn:    0.0004    constr:    0.0000
     atom:   28    charge:    2.8594    magn:    0.0076    constr:    0.0000
     atom:   29    charge:    2.8593    magn:    0.0076    constr:    0.0000
     atom:   30    charge:    2.8593    magn:    0.0065    constr:    0.0000
     atom:   31    charge:    2.8593    magn:    0.0096    constr:    0.0000
     atom:   32    charge:    0.8812    magn:    0.0004    constr:    0.0000
     atom:   33    charge:   12.7666    magn:    4.7615    constr:    0.0000
     atom:   34    charge:   12.7667    magn:    4.7616    constr:    0.0000

     total cpu time spent up to now is      536.8 secs

     End of self-consistent calculation

 ------ SPIN UP ------------


          k = 0.1667 0.2887 0.0000 ( 59267 PWs)   bands (ev):

   -72.4787 -72.4778 -43.9423 -43.9415 -43.9368 -43.9361 -43.9360 -43.9352
   -21.2609 -20.6792 -20.6652 -20.1196 -20.1093 -19.6063 -19.5923 -19.1138
   -18.7152 -18.7016 -18.4729 -18.4637 -18.2091 -18.1014 -18.0906 -17.8639
   -12.4979 -12.2223 -12.2133 -11.8359 -11.8301 -11.6717 -11.2090 -11.1994
   -10.4058 -10.3815 -10.1340 -10.1263  -9.6043  -9.6003  -8.8515  -8.8414
    -8.8356  -8.7837  -8.7713  -8.6103  -8.2108  -8.0646  -8.0350  -7.8428
    -7.8402  -7.4536  -7.4499  -7.3109  -7.2599  -7.2236  -7.2180  -6.9756
    -6.9675  -6.5815  -6.5537  -6.1680  -6.1659  -5.8872  -5.4324  -5.3106
    -5.2879  -5.2139  -4.9347  -4.9090  -4.5223  -4.3732  -4.3547  -3.9940
    -2.3481  -1.6002  -1.4473  -1.4320  -1.4223  -1.3831  -1.3709  -1.3686
    -1.3544  -1.3404  -1.3172  -1.2433   0.6195   0.7818   0.9745   1.2012
     1.2329   1.4377   1.4875   1.5544   1.5844   1.6232

          k = 0.1667-0.4811 0.0000 ( 59291 PWs)   bands (ev):

   -72.4787 -72.4778 -43.9423 -43.9415 -43.9368 -43.9361 -43.9360 -43.9352
   -21.1303 -20.9267 -20.7365 -20.1746 -19.8185 -19.4808 -19.3314 -19.1885
   -19.0288 -18.7930 -18.6544 -18.5589 -18.1626 -18.1046 -17.9361 -17.7382
   -12.3619 -12.1270 -12.0579 -11.9207 -11.6951 -11.6707 -11.5666 -10.9557
   -10.9038 -10.6376 -10.5372  -9.8738  -9.7072  -9.3500  -9.1246  -8.6827
    -8.6362  -8.5671  -8.4031  -8.3824  -8.1754  -8.1401  -8.0778  -8.0623
    -7.7015  -7.6369  -7.5082  -7.4874  -7.3717  -7.1848  -7.0815  -6.8757
    -6.6359  -6.4051  -6.1915  -6.1713  -5.9888  -5.9430  -5.7972  -5.7597
    -5.4652  -5.4146  -5.2222  -5.0573  -4.4588  -4.3643  -4.1042  -3.7815
    -2.3398  -1.6068  -1.4455  -1.4317  -1.4204  -1.3808  -1.3748  -1.3698
    -1.3545  -1.3401  -1.3170  -1.2435   0.6044   0.6453   1.0266   1.0472
     1.1731   1.2753   1.4057   1.7391   1.8324   1.9202

          k = 0.1667-0.0962 0.0000 ( 59226 PWs)   bands (ev):

   -72.4787 -72.4778 -43.9423 -43.9415 -43.9368 -43.9361 -43.9360 -43.9352
   -21.3274 -20.5494 -20.3588 -20.3541 -20.0026 -19.9942 -19.8201 -18.7436
   -18.7361 -18.3901 -18.3819 -18.3699 -18.2843 -18.2736 -18.0909 -18.0866
   -12.5234 -12.5138 -12.4218 -11.5944 -11.5902 -11.4419 -11.4320 -10.9395
   -10.9378  -9.9430  -9.9403  -9.6896  -9.3884  -9.3864  -9.2441  -9.2419
    -9.0559  -9.0542  -8.9384  -8.3375  -8.3353  -7.9148  -7.9124  -7.8975
    -7.8590  -7.7839  -7.6193  -7.6053  -7.1407  -7.1152  -6.9727  -6.9018
    -6.8988  -6.8664  -6.5447  -6.5420  -6.2711  -5.3577  -5.3395  -5.1570
    -5.0790  -4.8207  -4.8146  -4.7672  -4.6307  -4.6221  -4.3629  -4.3524
    -2.3564  -1.5936  -1.4490  -1.4324  -1.4242  -1.3872  -1.3695  -1.3649
    -1.3540  -1.3407  -1.3173  -1.2432   0.6357   0.9132   0.9545   1.2022
     1.2595   1.3325   1.4579   1.5429   1.5613   1.6853

          k =-0.5000-0.8660 0.0000 ( 59292 PWs)   bands (ev):

   -72.4787 -72.4778 -43.9423 -43.9415 -43.9368 -43.9361 -43.9360 -43.9352
   -21.0699 -21.0544 -20.4833 -20.4785 -19.4419 -19.4313 -19.4297 -19.4231
   -19.0108 -18.9986 -18.3454 -18.3395 -18.3301 -18.3179 -17.8078 -17.8030
   -12.0905 -12.0821 -12.0757 -12.0666 -11.8920 -11.8862 -11.3469 -11.3376
   -10.2500 -10.2452 -10.1495 -10.1455 -10.1431 -10.1400  -8.5998  -8.5725
    -8.5643  -8.5588  -8.5540  -8.5497  -7.8789  -7.8759  -7.8733  -7.8720
    -7.8361  -7.8335  -7.7890  -7.7784  -7.5080  -7.4955  -6.6257  -6.6205
    -6.3753  -6.3498  -6.3201  -6.3067  -6.2070  -6.1981  -5.7279  -5.7109
    -5.5632  -5.5515  -4.7424  -4.7369  -4.7127  -4.7043  -3.8982  -3.8868
    -2.2325  -1.7756  -1.4368  -1.4204  -1.4096  -1.3811  -1.3756  -1.3684
    -1.3621  -1.3524  -1.3354  -1.3230   0.9646   1.0104   1.0720   1.2085
     1.3111   1.3328   1.4350   1.5754   1.6342   1.6689

          k =-0.1667 0.2887 0.0000 ( 59267 PWs)   bands (ev):

   -72.4787 -72.4778 -43.9423 -43.9415 -43.9368 -43.9361 -43.9360 -43.9352
   -21.2609 -20.6792 -20.6652 -20.1196 -20.1093 -19.6064 -19.5923 -19.1138
   -18.7152 -18.7016 -18.4729 -18.4637 -18.2091 -18.1014 -18.0906 -17.8639
   -12.4978 -12.2223 -12.2133 -11.8359 -11.8301 -11.6717 -11.2090 -11.1993
   -10.4058 -10.3815 -10.1340 -10.1263  -9.6044  -9.6002  -8.8515  -8.8413
    -8.8356  -8.7838  -8.7714  -8.6103  -8.2108  -8.0646  -8.0350  -7.8428
    -7.8402  -7.4536  -7.4499  -7.3109  -7.2599  -7.2236  -7.2179  -6.9757
    -6.9676  -6.5815  -6.5537  -6.1680  -6.1658  -5.8872  -5.4325  -5.3106
    -5.2879  -5.2138  -4.9346  -4.9090  -4.5223  -4.3732  -4.3547  -3.9940
    -2.3481  -1.6002  -1.4473  -1.4320  -1.4223  -1.3831  -1.3709  -1.3686
    -1.3544  -1.3404  -1.3172  -1.2433   0.6195   0.7818   0.9745   1.2013
     1.2329   1.4377   1.4874   1.5543   1.5844   1.6232

          k = 0.3333 0.0000 0.0000 ( 59267 PWs)   bands (ev):

   -72.4787 -72.4778 -43.9424 -43.9415 -43.9368 -43.9361 -43.9359 -43.9352
   -21.2605 -20.6980 -20.6463 -20.1188 -20.1089 -19.6254 -19.5748 -19.1154
   -18.7273 -18.6855 -18.4739 -18.4641 -18.2054 -18.1200 -18.0774 -17.8632
   -12.4974 -12.2226 -12.2130 -11.8422 -11.8257 -11.6702 -11.2219 -11.1866
   -10.4050 -10.3814 -10.1440 -10.1169  -9.6090  -9.5946  -8.8592  -8.8373
    -8.8290  -8.8002  -8.7566  -8.6107  -8.2121  -8.1172  -7.9817  -7.8418
    -7.8396  -7.4586  -7.4442  -7.3092  -7.2582  -7.2307  -7.2108  -6.9765
    -6.9679  -6.6317  -6.5098  -6.1701  -6.1630  -5.8921  -5.4321  -5.3249
    -5.2658  -5.2141  -4.9333  -4.9124  -4.5141  -4.3954  -4.3421  -3.9937
    -2.2863  -1.6990  -1.4413  -1.4251  -1.4163  -1.3859  -1.3688  -1.3643
    -1.3627  -1.3478  -1.3270  -1.3064   0.9550   0.9977   1.0752   1.2029
     1.3086   1.3257   1.3922   1.5023   1.5452   1.5838

          k =-0.1667-0.4811 0.0000 ( 59291 PWs)   bands (ev):

   -72.4787 -72.4778 -43.9423 -43.9415 -43.9368 -43.9361 -43.9360 -43.9352
   -21.1303 -20.9267 -20.7365 -20.1746 -19.8185 -19.4808 -19.3314 -19.1885
   -19.0288 -18.7930 -18.6545 -18.5589 -18.1626 -18.1046 -17.9361 -17.7382
   -12.3619 -12.1270 -12.0579 -11.9206 -11.6950 -11.6707 -11.5666 -10.9557
   -10.9038 -10.6376 -10.5371  -9.8738  -9.7072  -9.3500  -9.1247  -8.6827
    -8.6361  -8.5671  -8.4031  -8.3824  -8.1753  -8.1402  -8.0778  -8.0624
    -7.7015  -7.6369  -7.5082  -7.4873  -7.3717  -7.1847  -7.0815  -6.8757
    -6.6359  -6.4051  -6.1915  -6.1713  -5.9888  -5.9429  -5.7972  -5.7597
    -5.4653  -5.4146  -5.2222  -5.0574  -4.4588  -4.3643  -4.1042  -3.7815
    -2.3398  -1.6068  -1.4455  -1.4317  -1.4204  -1.3808  -1.3749  -1.3698
    -1.3545  -1.3401  -1.3170  -1.2435   0.6044   0.6453   1.0266   1.0472
     1.1731   1.2753   1.4057   1.7392   1.8324   1.9203

          k = 0.5000-0.0962 0.0000 ( 59291 PWs)   bands (ev):

   -72.4787 -72.4778 -43.9424 -43.9415 -43.9368 -43.9361 -43.9360 -43.9352
   -21.1281 -20.9330 -20.7324 -20.1731 -19.8186 -19.4823 -19.3363 -19.1843
   -19.0297 -18.7936 -18.6460 -18.5641 -18.1527 -18.1183 -17.9335 -17.7379
   -12.3607 -12.1274 -12.0565 -11.9239 -11.7049 -11.6593 -11.5683 -10.9564
   -10.9017 -10.6359 -10.5393  -9.8721  -9.7076  -9.3508  -9.1242  -8.6723
    -8.6367  -8.5649  -8.4167  -8.4040  -8.1733  -8.1191  -8.0882  -8.0532
    -7.6984  -7.6373  -7.5075  -7.4882  -7.3663  -7.1861  -7.0822  -6.8763
    -6.6363  -6.4101  -6.2109  -6.1709  -5.9729  -5.9424  -5.7966  -5.7630
    -5.4662  -5.4125  -5.2017  -5.0716  -4.4382  -4.3900  -4.1005  -3.7817
    -2.2327  -1.7754  -1.4367  -1.4204  -1.4099  -1.3836  -1.3738  -1.3682
    -1.3620  -1.3524  -1.3354  -1.3230   0.9106   0.9922   1.1093   1.1469
     1.2783   1.3397   1.4051   1.4730   1.6201   1.7812

          k =-0.3333-0.3849 0.0000 ( 59291 PWs)   bands (ev):

   -72.4787 -72.4778 -43.9423 -43.9415 -43.9368 -43.9361 -43.9360 -43.9352
   -21.1289 -20.9308 -20.7339 -20.1730 -19.8202 -19.4808 -19.3322 -19.1871
   -19.0321 -18.7921 -18.6472 -18.5634 -18.1546 -18.1159 -17.9337 -17.7381
   -12.3614 -12.1256 -12.0584 -11.9228 -11.6956 -11.6695 -11.5677 -10.9562
   -10.9017 -10.6354 -10.5398  -9.8725  -9.7077  -9.3506  -9.1249  -8.6755
    -8.6355  -8.5671  -8.4073  -8.3998  -8.1747  -8.1266  -8.0784  -8.0640
    -7.6986  -7.6360  -7.5129  -7.4834  -7.3657  -7.1861  -7.0826  -6.8821
    -6.6344  -6.4046  -6.1960  -6.1728  -5.9836  -5.9417  -5.7967  -5.7716
    -5.4660  -5.4079  -5.2017  -5.0720  -4.4404  -4.3883  -4.1000  -3.7817
    -2.2756  -1.7088  -1.4401  -1.4246  -1.4143  -1.3818  -1.3741  -1.3660
    -1.3621  -1.3478  -1.3266  -1.3065   0.7974   0.9453   1.0544   1.0948
     1.2117   1.2855   1.3828   1.4938   1.7287   1.8494

          k = 0.5000 0.0962 0.0000 ( 59291 PWs)   bands (ev):

   -72.4787 -72.4778 -43.9424 -43.9415 -43.9368 -43.9361 -43.9360 -43.9352
   -21.1281 -20.9330 -20.7324 -20.1731 -19.8186 -19.4823 -19.3363 -19.1843
   -19.0297 -18.7936 -18.6460 -18.5641 -18.1527 -18.1183 -17.9335 -17.7379
   -12.3607 -12.1274 -12.0564 -11.9239 -11.7049 -11.6593 -11.5683 -10.9563
   -10.9017 -10.6360 -10.5393  -9.8721  -9.7077  -9.3508  -9.1241  -8.6723
    -8.6367  -8.5649  -8.4167  -8.4040  -8.1733  -8.1191  -8.0882  -8.0532
    -7.6984  -7.6373  -7.5076  -7.4883  -7.3663  -7.1861  -7.0821  -6.8763
    -6.6362  -6.4101  -6.2109  -6.1708  -5.9729  -5.9423  -5.7967  -5.7630
    -5.4662  -5.4125  -5.2017  -5.0715  -4.4383  -4.3900  -4.1005  -3.7817
    -2.2327  -1.7754  -1.4367  -1.4204  -1.4099  -1.3836  -1.3738  -1.3682
    -1.3620  -1.3524  -1.3355  -1.3230   0.9106   0.9922   1.1093   1.1469
     1.2782   1.3397   1.4050   1.4730   1.6201   1.7811

          k =-0.3333 0.3849 0.0000 ( 59291 PWs)   bands (ev):

   -72.4787 -72.4778 -43.9423 -43.9415 -43.9368 -43.9361 -43.9360 -43.9352
   -21.1289 -20.9308 -20.7339 -20.1730 -19.8202 -19.4808 -19.3322 -19.1871
   -19.0321 -18.7921 -18.6472 -18.5634 -18.1545 -18.1160 -17.9337 -17.7381
   -12.3614 -12.1256 -12.0584 -11.9228 -11.6956 -11.6695 -11.5677 -10.9562
   -10.9017 -10.6354 -10.5398  -9.8725  -9.7077  -9.3505  -9.1249  -8.6755
    -8.6356  -8.5670  -8.4074  -8.3998  -8.1747  -8.1266  -8.0784  -8.0639
    -7.6986  -7.6360  -7.5129  -7.4833  -7.3657  -7.1861  -7.0827  -6.8821
    -6.6345  -6.4046  -6.1960  -6.1729  -5.9836  -5.9418  -5.7967  -5.7716
    -5.4659  -5.4079  -5.2017  -5.0720  -4.4404  -4.3883  -4.1000  -3.7817
    -2.2756  -1.7088  -1.4401  -1.4246  -1.4143  -1.3819  -1.3740  -1.3661
    -1.3621  -1.3478  -1.3266  -1.3065   0.7974   0.9453   1.0544   1.0948
     1.2117   1.2855   1.3828   1.4938   1.7287   1.8494

          k =-0.1667-0.0962 0.0000 ( 59226 PWs)   bands (ev):

   -72.4787 -72.4778 -43.9423 -43.9415 -43.9368 -43.9361 -43.9359 -43.9352
   -21.3274 -20.5494 -20.3588 -20.3541 -20.0026 -19.9942 -19.8201 -18.7436
   -18.7361 -18.3902 -18.3819 -18.3699 -18.2843 -18.2736 -18.0909 -18.0866
   -12.5234 -12.5138 -12.4218 -11.5944 -11.5902 -11.4420 -11.4321 -10.9395
   -10.9378  -9.9430  -9.9403  -9.6896  -9.3884  -9.3863  -9.2441  -9.2419
    -9.0559  -9.0543  -8.9384  -8.3376  -8.3353  -7.9148  -7.9124  -7.8975
    -7.8590  -7.7840  -7.6193  -7.6053  -7.1407  -7.1152  -6.9728  -6.9018
    -6.8987  -6.8664  -6.5446  -6.5419  -6.2712  -5.3577  -5.3395  -5.1569
    -5.0791  -4.8207  -4.8146  -4.7672  -4.6307  -4.6220  -4.3629  -4.3524
    -2.3564  -1.5936  -1.4490  -1.4324  -1.4242  -1.3872  -1.3695  -1.3649
    -1.3540  -1.3407  -1.3173  -1.2432   0.6357   0.9132   0.9545   1.2022
     1.2595   1.3326   1.4579   1.5429   1.5614   1.6852

          k =-0.0000-0.1925 0.0000 ( 59226 PWs)   bands (ev):

   -72.4787 -72.4778 -43.9423 -43.9415 -43.9368 -43.9361 -43.9360 -43.9352
   -21.3274 -20.5452 -20.3686 -20.3516 -20.0022 -19.9885 -19.8231 -18.7456
   -18.7311 -18.4042 -18.3886 -18.3660 -18.2699 -18.2698 -18.0975 -18.0845
   -12.5239 -12.5138 -12.4213 -11.5982 -11.5874 -11.4404 -11.4314 -10.9425
   -10.9363  -9.9421  -9.9412  -9.6899  -9.3881  -9.3855  -9.2437  -9.2428
    -9.0564  -9.0538  -8.9393  -8.3368  -8.3355  -7.9138  -7.9128  -7.8770
    -7.8575  -7.7853  -7.6705  -7.5879  -7.1409  -7.0888  -6.9716  -6.9036
    -6.8982  -6.8800  -6.5462  -6.5397  -6.2717  -5.3706  -5.3172  -5.1572
    -5.0788  -4.8417  -4.8304  -4.7671  -4.6091  -4.6070  -4.3830  -4.3415
    -2.3809  -1.5580  -1.4518  -1.4354  -1.4264  -1.3860  -1.3710  -1.3663
    -1.3506  -1.3375  -1.3133  -1.1949   0.4709   0.8396   0.9082   1.1719
     1.2483   1.3703   1.4707   1.5981   1.6436   1.6504

          k = 0.5000-0.8660 0.0000 ( 59292 PWs)   bands (ev):

   -72.4787 -72.4778 -43.9423 -43.9415 -43.9368 -43.9361 -43.9360 -43.9352
   -21.0699 -21.0543 -20.4833 -20.4785 -19.4419 -19.4313 -19.4297 -19.4231
   -19.0109 -18.9986 -18.3454 -18.3396 -18.3300 -18.3179 -17.8078 -17.8030
   -12.0906 -12.0822 -12.0757 -12.0666 -11.8920 -11.8862 -11.3469 -11.3375
   -10.2501 -10.2452 -10.1495 -10.1455 -10.1431 -10.1400  -8.5998  -8.5725
    -8.5643  -8.5588  -8.5539  -8.5496  -7.8789  -7.8759  -7.8733  -7.8720
    -7.8361  -7.8336  -7.7890  -7.7784  -7.5081  -7.4956  -6.6256  -6.6205
    -6.3753  -6.3498  -6.3201  -6.3067  -6.2070  -6.1979  -5.7279  -5.7109
    -5.5633  -5.5515  -4.7424  -4.7369  -4.7127  -4.7043  -3.8982  -3.8869
    -2.2325  -1.7756  -1.4368  -1.4204  -1.4096  -1.3810  -1.3757  -1.3683
    -1.3621  -1.3524  -1.3354  -1.3230   0.9646   1.0105   1.0720   1.2084
     1.3112   1.3329   1.4353   1.5752   1.6342   1.6698

          k =-1.0000 0.0000 0.0000 ( 59292 PWs)   bands (ev):

   -72.4787 -72.4778 -43.9423 -43.9415 -43.9368 -43.9361 -43.9360 -43.9352
   -21.0871 -21.0349 -20.4910 -20.4747 -19.4383 -19.4365 -19.4327 -19.4134
   -19.0258 -18.9852 -18.3803 -18.3503 -18.3065 -18.2961 -17.8126 -17.7997
   -12.1149 -12.0931 -12.0542 -12.0500 -11.8955 -11.8830 -11.3621 -11.3236
   -10.2543 -10.2539 -10.1469 -10.1455 -10.1377 -10.1366  -8.6466  -8.5852
    -8.5710  -8.5414  -8.5321  -8.5074  -7.8890  -7.8820  -7.8756  -7.8724
    -7.8415  -7.8272  -7.8129  -7.7556  -7.5249  -7.4804  -6.6266  -6.6174
    -6.3904  -6.3325  -6.3227  -6.2853  -6.2205  -6.1875  -5.7532  -5.6954
    -5.5783  -5.5367  -4.7970  -4.7762  -4.6653  -4.6602  -3.9097  -3.8773
    -2.3656  -1.5690  -1.4476  -1.4347  -1.4227  -1.3789  -1.3767  -1.3715
    -1.3511  -1.3365  -1.3131  -1.1956   0.4511   0.5801   1.0509   1.0554
     1.1222   1.5310   1.5824   1.5951   1.6252   1.8612

 ------ SPIN DOWN ----------


          k = 0.1667 0.2887 0.0000 ( 59267 PWs)   bands (ev):

   -68.1078 -68.1069 -39.6153 -39.6143 -39.5990 -39.5979 -39.5943 -39.5933
   -21.2533 -20.6712 -20.6586 -20.1111 -20.1030 -19.5984 -19.5858 -19.1062
   -18.7059 -18.6943 -18.4644 -18.4571 -18.2000 -18.0940 -18.0847 -17.8563
   -12.4927 -12.2161 -12.2090 -11.8310 -11.8257 -11.6675 -11.2036 -11.1945
   -10.4002 -10.3762 -10.1281 -10.1213  -9.5990  -9.5954  -8.8352  -8.8304
    -8.8230  -8.7786  -8.7671  -8.6055  -8.2062  -8.0358  -8.0130  -7.8378
    -7.8359  -7.4473  -7.4441  -7.2772  -7.2453  -7.2188  -7.2136  -6.9704
    -6.9635  -6.5562  -6.5344  -6.1629  -6.1611  -5.8635  -5.4268  -5.2817
    -5.2664  -5.2089  -4.9088  -4.8928  -4.4963  -4.3517  -4.3389  -3.9737
    -0.2773   0.6680   1.0447   1.1994   1.3594   1.4043   1.4496   1.5324
     1.5620   1.8104   1.9051   2.1076   2.1890   2.2541   2.3055   2.3668
     2.4361   2.4705   2.5048   2.6001   2.6176   2.6480

          k = 0.1667-0.4811 0.0000 ( 59291 PWs)   bands (ev):

   -68.1078 -68.1069 -39.6153 -39.6143 -39.5990 -39.5979 -39.5943 -39.5933
   -21.1221 -20.9204 -20.7290 -20.1670 -19.8112 -19.4734 -19.3240 -19.1808
   -19.0213 -18.7857 -18.6444 -18.5531 -18.1516 -18.1006 -17.9283 -17.7304
   -12.3566 -12.1217 -12.0533 -11.9159 -11.6908 -11.6657 -11.5618 -10.9504
   -10.8981 -10.6316 -10.5325  -9.8679  -9.7022  -9.3445  -9.1196  -8.6497
    -8.6311  -8.5612  -8.3984  -8.3653  -8.1703  -8.1129  -8.0729  -8.0581
    -7.6962  -7.6321  -7.5031  -7.4832  -7.3452  -7.1794  -7.0768  -6.8525
    -6.6299  -6.3819  -6.1697  -6.1660  -5.9647  -5.9370  -5.7921  -5.7381
    -5.4604  -5.3912  -5.1902  -5.0429  -4.4274  -4.3543  -4.0831  -3.7616
    -0.2397   0.6360   1.0150   1.0931   1.1686   1.2967   1.3386   1.7579
     1.8601   1.8862   2.0449   2.1042   2.2274   2.2760   2.2922   2.3488
     2.4343   2.4681   2.5112   2.5148   2.5439   2.6375

          k = 0.1667-0.0962 0.0000 ( 59226 PWs)   bands (ev):

   -68.1078 -68.1069 -39.6153 -39.6143 -39.5990 -39.5979 -39.5943 -39.5933
   -21.3199 -20.5410 -20.3517 -20.3477 -19.9941 -19.9871 -19.8138 -18.7347
   -18.7284 -18.3812 -18.3748 -18.3622 -18.2753 -18.2671 -18.0840 -18.0802
   -12.5172 -12.5097 -12.4168 -11.5896 -11.5858 -11.4359 -11.4280 -10.9344
   -10.9328  -9.9376  -9.9352  -9.6840  -9.3831  -9.3813  -9.2383  -9.2365
    -9.0508  -9.0495  -8.9118  -8.3316  -8.3296  -7.9098  -7.9079  -7.8662
    -7.8508  -7.7795  -7.5959  -7.5870  -7.1101  -7.0935  -6.9677  -6.8970
    -6.8944  -6.8503  -6.5397  -6.5373  -6.2664  -5.3289  -5.3165  -5.1517
    -5.0738  -4.7970  -4.7915  -4.7461  -4.6082  -4.6012  -4.3426  -4.3346
    -0.3121   0.7016   1.0421   1.1332   1.2485   1.4548   1.5083   1.5654
     1.8305   1.9041   1.9934   2.0277   2.0605   2.1358   2.2945   2.3717
     2.4270   2.4402   2.4871   2.5606   2.6248   2.6459

          k =-0.5000-0.8660 0.0000 ( 59292 PWs)   bands (ev):

   -68.1078 -68.1069 -39.6153 -39.6143 -39.5990 -39.5979 -39.5943 -39.5933
   -21.0614 -21.0476 -20.4761 -20.4718 -19.4323 -19.4234 -19.4225 -19.4168
   -19.0029 -18.9922 -18.3358 -18.3315 -18.3222 -18.3124 -17.8000 -17.7957
   -12.0838 -12.0774 -12.0703 -12.0629 -11.8874 -11.8821 -11.3415 -11.3326
   -10.2443 -10.2401 -10.1433 -10.1398 -10.1381 -10.1354  -8.5678  -8.5610
    -8.5588  -8.5494  -8.5459  -8.5404  -7.8731  -7.8710  -7.8687  -7.8674
    -7.8303  -7.8279  -7.7661  -7.7576  -7.5031  -7.4916  -6.6201  -6.6157
    -6.3362  -6.3192  -6.3026  -6.2925  -6.2014  -6.1931  -5.7052  -5.6920
    -5.5577  -5.5470  -4.7170  -4.7120  -4.6933  -4.6862  -3.8769  -3.8681
    -0.1044   0.2774   1.0297   1.0530   1.4404   1.4758   1.4919   1.5631
     1.7626   1.7757   2.0497   2.0702   2.1901   2.2804   2.3715   2.3817
     2.4198   2.4595   2.4938   2.5145   2.5573   2.6615

          k =-0.1667 0.2887 0.0000 ( 59267 PWs)   bands (ev):

   -68.1078 -68.1069 -39.6153 -39.6143 -39.5990 -39.5979 -39.5943 -39.5933
   -21.2533 -20.6712 -20.6585 -20.1111 -20.1030 -19.5984 -19.5858 -19.1062
   -18.7059 -18.6943 -18.4644 -18.4571 -18.2000 -18.0941 -18.0847 -17.8563
   -12.4927 -12.2161 -12.2090 -11.8310 -11.8257 -11.6675 -11.2036 -11.1944
   -10.4002 -10.3762 -10.1282 -10.1213  -9.5990  -9.5953  -8.8352  -8.8304
    -8.8230  -8.7786  -8.7672  -8.6054  -8.2063  -8.0358  -8.0130  -7.8378
    -7.8358  -7.4473  -7.4442  -7.2772  -7.2453  -7.2187  -7.2136  -6.9704
    -6.9636  -6.5563  -6.5344  -6.1629  -6.1610  -5.8635  -5.4269  -5.2818
    -5.2664  -5.2088  -4.9088  -4.8927  -4.4963  -4.3517  -4.3389  -3.9736
    -0.2773   0.6680   1.0448   1.1994   1.3593   1.4043   1.4496   1.5324
     1.5619   1.8104   1.9052   2.1076   2.1890   2.2540   2.3055   2.3669
     2.4362   2.4707   2.5048   2.5998   2.6175   2.6473

          k = 0.3333 0.0000 0.0000 ( 59267 PWs)   bands (ev):

   -68.1078 -68.1069 -39.6153 -39.6143 -39.5990 -39.5979 -39.5943 -39.5933
   -21.2530 -20.6865 -20.6432 -20.1105 -20.1027 -19.6137 -19.5716 -19.1073
   -18.7154 -18.6822 -18.4650 -18.4576 -18.1975 -18.1081 -18.0742 -17.8558
   -12.4924 -12.2164 -12.2087 -11.8366 -11.8216 -11.6662 -11.2149 -11.1833
   -10.3996 -10.3761 -10.1362 -10.1136  -9.6029  -9.5908  -8.8395  -8.8312
    -8.8161  -8.7925  -8.7544  -8.6059  -8.2073  -8.0728  -7.9758  -7.8370
    -7.8354  -7.4512  -7.4399  -7.2762  -7.2442  -7.2247  -7.2076  -6.9709
    -6.9639  -6.5907  -6.5034  -6.1647  -6.1588  -5.8660  -5.4267  -5.2928
    -5.2513  -5.2090  -4.9083  -4.8944  -4.4922  -4.3672  -4.3285  -3.9734
    -0.2153   0.4517   1.0509   1.1868   1.3516   1.4862   1.4896   1.5243
     1.5870   1.8216   2.0816   2.1530   2.2246   2.2400   2.2674   2.3999
     2.4325   2.4631   2.5331   2.5561   2.5956   2.6023

          k =-0.1667-0.4811 0.0000 ( 59291 PWs)   bands (ev):

   -68.1078 -68.1069 -39.6153 -39.6143 -39.5990 -39.5979 -39.5943 -39.5933
   -21.1221 -20.9204 -20.7290 -20.1670 -19.8112 -19.4734 -19.3240 -19.1808
   -19.0214 -18.7857 -18.6444 -18.5530 -18.1516 -18.1006 -17.9283 -17.7304
   -12.3566 -12.1217 -12.0533 -11.9159 -11.6908 -11.6657 -11.5618 -10.9504
   -10.8981 -10.6316 -10.5324  -9.8679  -9.7022  -9.3445  -9.1196  -8.6497
    -8.6311  -8.5612  -8.3984  -8.3653  -8.1702  -8.1129  -8.0729  -8.0581
    -7.6962  -7.6322  -7.5031  -7.4832  -7.3452  -7.1793  -7.0768  -6.8525
    -6.6300  -6.3819  -6.1697  -6.1660  -5.9647  -5.9370  -5.7921  -5.7380
    -5.4605  -5.3912  -5.1902  -5.0429  -4.4274  -4.3543  -4.0831  -3.7616
    -0.2397   0.6359   1.0150   1.0931   1.1686   1.2967   1.3386   1.7579
     1.8601   1.8862   2.0449   2.1042   2.2274   2.2760   2.2922   2.3488
     2.4343   2.4681   2.5110   2.5150   2.5439   2.6366

          k = 0.5000-0.0962 0.0000 ( 59291 PWs)   bands (ev):

   -68.1078 -68.1069 -39.6153 -39.6143 -39.5990 -39.5979 -39.5943 -39.5933
   -21.1205 -20.9248 -20.7261 -20.1659 -19.8113 -19.4744 -19.3274 -19.1779
   -19.0219 -18.7861 -18.6387 -18.5566 -18.1445 -18.1100 -17.9267 -17.7302
   -12.3558 -12.1221 -12.0521 -11.9185 -11.6988 -11.6564 -11.5631 -10.9509
   -10.8965 -10.6304 -10.5341  -9.8666  -9.7026  -9.3451  -9.1193  -8.6444
    -8.6313  -8.5597  -8.4014  -8.3817  -8.1689  -8.1019  -8.0815  -8.0504
    -7.6939  -7.6325  -7.5026  -7.4840  -7.3422  -7.1802  -7.0773  -6.8528
    -6.6302  -6.3846  -6.1791  -6.1662  -5.9565  -5.9368  -5.7916  -5.7396
    -5.4611  -5.3906  -5.1793  -5.0504  -4.4156  -4.3687  -4.0813  -3.7616
    -0.1066   0.2834   0.9999   1.1063   1.1643   1.3021   1.6193   1.7541
     1.7858   2.0278   2.0508   2.1494   2.2029   2.2746   2.3260   2.3652
     2.4293   2.4727   2.5166   2.5344   2.5771   2.6284

          k =-0.3333-0.3849 0.0000 ( 59291 PWs)   bands (ev):

   -68.1078 -68.1069 -39.6153 -39.6143 -39.5990 -39.5979 -39.5943 -39.5933
   -21.1210 -20.9233 -20.7272 -20.1658 -19.8124 -19.4734 -19.3245 -19.1799
   -19.0235 -18.7851 -18.6395 -18.5561 -18.1457 -18.1085 -17.9268 -17.7303
   -12.3563 -12.1206 -12.0536 -11.9176 -11.6913 -11.6647 -11.5626 -10.9507
   -10.8965 -10.6300 -10.5345  -9.8669  -9.7026  -9.3449  -9.1198  -8.6458
    -8.6306  -8.5611  -8.3994  -8.3759  -8.1699  -8.1060  -8.0733  -8.0593
    -7.6941  -7.6315  -7.5068  -7.4801  -7.3419  -7.1803  -7.0776  -6.8559
    -6.6289  -6.3817  -6.1715  -6.1671  -5.9621  -5.9362  -5.7918  -5.7440
    -5.4610  -5.3883  -5.1795  -5.0505  -4.4167  -4.3677  -4.0810  -3.7617
    -0.1642   0.4006   1.0121   1.0656   1.2056   1.2929   1.4963   1.7692
     1.9225   1.9653   2.0422   2.0701   2.1816   2.2963   2.3191   2.3974
     2.4194   2.4604   2.4861   2.5449   2.5760   2.6194

          k = 0.5000 0.0962 0.0000 ( 59291 PWs)   bands (ev):

   -68.1078 -68.1069 -39.6153 -39.6143 -39.5990 -39.5979 -39.5943 -39.5933
   -21.1205 -20.9248 -20.7261 -20.1659 -19.8113 -19.4744 -19.3274 -19.1779
   -19.0219 -18.7861 -18.6387 -18.5566 -18.1445 -18.1100 -17.9267 -17.7302
   -12.3558 -12.1221 -12.0521 -11.9185 -11.6988 -11.6563 -11.5631 -10.9508
   -10.8965 -10.6304 -10.5341  -9.8666  -9.7026  -9.3451  -9.1192  -8.6444
    -8.6313  -8.5597  -8.4014  -8.3817  -8.1689  -8.1019  -8.0815  -8.0504
    -7.6939  -7.6325  -7.5026  -7.4840  -7.3422  -7.1803  -7.0772  -6.8528
    -6.6301  -6.3846  -6.1791  -6.1661  -5.9565  -5.9368  -5.7917  -5.7396
    -5.4612  -5.3906  -5.1793  -5.0504  -4.4156  -4.3686  -4.0813  -3.7616
    -0.1066   0.2834   1.0000   1.1063   1.1643   1.3021   1.6193   1.7541
     1.7858   2.0279   2.0508   2.1494   2.2029   2.2745   2.3259   2.3652
     2.4293   2.4727   2.5163   2.5343   2.5769   2.6304

          k =-0.3333 0.3849 0.0000 ( 59291 PWs)   bands (ev):

   -68.1078 -68.1069 -39.6153 -39.6143 -39.5990 -39.5979 -39.5943 -39.5933
   -21.1210 -20.9233 -20.7272 -20.1658 -19.8124 -19.4734 -19.3245 -19.1799
   -19.0235 -18.7851 -18.6395 -18.5561 -18.1457 -18.1085 -17.9268 -17.7303
   -12.3563 -12.1206 -12.0536 -11.9177 -11.6913 -11.6647 -11.5625 -10.9507
   -10.8965 -10.6300 -10.5345  -9.8669  -9.7026  -9.3449  -9.1198  -8.6458
    -8.6307  -8.5611  -8.3995  -8.3759  -8.1700  -8.1060  -8.0733  -8.0592
    -7.6940  -7.6315  -7.5068  -7.4800  -7.3419  -7.1803  -7.0777  -6.8559
    -6.6290  -6.3817  -6.1715  -6.1672  -5.9621  -5.9363  -5.7917  -5.7440
    -5.4609  -5.3883  -5.1795  -5.0505  -4.4167  -4.3677  -4.0810  -3.7617
    -0.1642   0.4006   1.0120   1.0656   1.2056   1.2929   1.4963   1.7692
     1.9225   1.9654   2.0422   2.0700   2.1816   2.2963   2.3191   2.3974
     2.4194   2.4603   2.4862   2.5451   2.5755   2.6187

          k =-0.1667-0.0962 0.0000 ( 59226 PWs)   bands (ev):

   -68.1078 -68.1069 -39.6153 -39.6143 -39.5990 -39.5979 -39.5943 -39.5933
   -21.3199 -20.5410 -20.3517 -20.3477 -19.9941 -19.9871 -19.8138 -18.7347
   -18.7284 -18.3812 -18.3748 -18.3621 -18.2753 -18.2671 -18.0840 -18.0802
   -12.5172 -12.5097 -12.4168 -11.5895 -11.5858 -11.4359 -11.4280 -10.9344
   -10.9328  -9.9376  -9.9352  -9.6840  -9.3830  -9.3813  -9.2383  -9.2365
    -9.0508  -9.0495  -8.9118  -8.3316  -8.3296  -7.9098  -7.9079  -7.8661
    -7.8507  -7.7795  -7.5959  -7.5870  -7.1101  -7.0935  -6.9678  -6.8970
    -6.8944  -6.8503  -6.5397  -6.5373  -6.2664  -5.3289  -5.3165  -5.1516
    -5.0739  -4.7970  -4.7915  -4.7461  -4.6082  -4.6012  -4.3426  -4.3347
    -0.3121   0.7016   1.0421   1.1331   1.2486   1.4548   1.5083   1.5654
     1.8305   1.9042   1.9934   2.0277   2.0605   2.1358   2.2945   2.3717
     2.4271   2.4402   2.4871   2.5605   2.6249   2.6457

          k =-0.0000-0.1925 0.0000 ( 59226 PWs)   bands (ev):

   -68.1078 -68.1069 -39.6153 -39.6143 -39.5990 -39.5979 -39.5943 -39.5933
   -21.3199 -20.5381 -20.3592 -20.3453 -19.9941 -19.9828 -19.8159 -18.7363
   -18.7247 -18.3907 -18.3788 -18.3599 -18.2654 -18.2649 -18.0887 -18.0784
   -12.5176 -12.5096 -12.4164 -11.5926 -11.5835 -11.4348 -11.4274 -10.9366
   -10.9317  -9.9369  -9.9360  -9.6842  -9.3828  -9.3806  -9.2376  -9.2376
    -9.0514  -9.0491  -8.9121  -8.3313  -8.3295  -7.9091  -7.9081  -7.8594
    -7.8462  -7.7805  -7.6256  -7.5749  -7.1128  -7.0769  -6.9669  -6.8985
    -6.8939  -6.8573  -6.5409  -6.5356  -6.2667  -5.3376  -5.3034  -5.1519
    -5.0737  -4.8081  -4.7988  -4.7460  -4.5968  -4.5942  -4.3541  -4.3276
    -0.3341   0.8368   1.0287   1.1514   1.2453   1.4196   1.4774   1.5804
     1.7517   1.8555   1.9200   1.9895   2.0194   2.2010   2.3287   2.3411
     2.4037   2.4701   2.5043   2.6305   2.6368   2.6721

          k = 0.5000-0.8660 0.0000 ( 59292 PWs)   bands (ev):

   -68.1078 -68.1069 -39.6153 -39.6143 -39.5990 -39.5979 -39.5943 -39.5933
   -21.0614 -21.0476 -20.4761 -20.4718 -19.4323 -19.4234 -19.4225 -19.4168
   -19.0029 -18.9922 -18.3358 -18.3316 -18.3221 -18.3124 -17.8000 -17.7957
   -12.0840 -12.0774 -12.0702 -12.0628 -11.8873 -11.8821 -11.3415 -11.3325
   -10.2443 -10.2401 -10.1433 -10.1398 -10.1382 -10.1354  -8.5678  -8.5611
    -8.5588  -8.5493  -8.5458  -8.5404  -7.8731  -7.8710  -7.8686  -7.8675
    -7.8304  -7.8279  -7.7661  -7.7576  -7.5032  -7.4916  -6.6201  -6.6156
    -6.3362  -6.3192  -6.3026  -6.2925  -6.2014  -6.1929  -5.7052  -5.6921
    -5.5578  -5.5471  -4.7170  -4.7120  -4.6932  -4.6862  -3.8769  -3.8681
    -0.1044   0.2774   1.0298   1.0531   1.4403   1.4759   1.4918   1.5631
     1.7626   1.7757   2.0497   2.0703   2.1902   2.2805   2.3714   2.3814
     2.4202   2.4593   2.4941   2.5143   2.5570   2.6618

          k =-1.0000 0.0000 0.0000 ( 59292 PWs)   bands (ev):

   -68.1078 -68.1069 -39.6153 -39.6143 -39.5990 -39.5979 -39.5943 -39.5933
   -21.0756 -21.0318 -20.4819 -20.4686 -19.4299 -19.4276 -19.4243 -19.4097
   -19.0143 -18.9819 -18.3636 -18.3393 -18.3044 -18.2949 -17.8033 -17.7933
   -12.1048 -12.0873 -12.0518 -12.0484 -11.8902 -11.8796 -11.3547 -11.3205
   -10.2473 -10.2468 -10.1414 -10.1404 -10.1333 -10.1329  -8.6018  -8.5769
    -8.5649  -8.5389  -8.5305  -8.5017  -7.8813  -7.8755  -7.8687  -7.8675
    -7.8252  -7.8238  -7.7870  -7.7431  -7.5175  -7.4785  -6.6207  -6.6136
    -6.3462  -6.3114  -6.3042  -6.2783  -6.2127  -6.1837  -5.7214  -5.6802
    -5.5702  -5.5347  -4.7543  -4.7371  -4.6614  -4.6570  -3.8836  -3.8624
    -0.2677   0.7700   1.0429   1.1113   1.2469   1.2950   1.5054   1.5908
     1.6228   1.7019   1.8865   2.1434   2.1817   2.2776   2.3128   2.3743
     2.3977   2.4984   2.5485   2.5661   2.6365   2.6393

     the Fermi energy is    -0.8506 ev

!    total energy              =   -1133.81259058 Ry

     total all-electron energy =     -6753.488294 Ry
     estimated scf accuracy    <       0.00000005 Ry
     smearing contrib. (-TS)   =      -0.00000000 Ry
     internal energy E=F+TS    =   -1133.81259058 Ry

     The total energy is F=E-TS. E is the sum of the following terms:
     one-electron contribution =   -3916.50173875 Ry
     hartree contribution      =    1986.88252886 Ry
     xc contribution           =    -186.20338541 Ry
     ewald contribution        =    1341.37705379 Ry
     DFT-D3 Dispersion         =      -0.13898986 Ry
     one-center paw contrib.   =    -359.22805921 Ry

     total magnetization       =    12.00 Bohr mag/cell
     absolute magnetization    =    12.00 Bohr mag/cell

     convergence has been achieved in  12 iterations

     Writing output data file ./mytmp/Crdimer0.28-0.0.save/
 
     init_run     :     18.84s CPU     20.24s WALL (       1 calls)
     electrons    :    477.77s CPU    516.42s WALL (       1 calls)

     Called by init_run:
     wfcinit      :     13.80s CPU     14.66s WALL (       1 calls)
     potinit      :      1.53s CPU      1.60s WALL (       1 calls)
     hinit0       :      1.54s CPU      1.63s WALL (       1 calls)

     Called by electrons:
     c_bands      :    379.28s CPU    401.87s WALL (      12 calls)
     sum_band     :     69.39s CPU     79.08s WALL (      12 calls)
     v_of_rho     :      6.45s CPU      7.17s WALL (      13 calls)
     newd         :     16.04s CPU     21.77s WALL (      13 calls)
     PAW_pot      :      6.41s CPU      6.47s WALL (      13 calls)
     mix_rho      :      0.82s CPU      0.89s WALL (      12 calls)

     Called by c_bands:
     init_us_2    :      4.32s CPU      4.36s WALL (     750 calls)
     cegterg      :    368.68s CPU    391.22s WALL (     360 calls)

     Called by *egterg:
     cdiaghg      :     22.73s CPU     35.92s WALL (    2435 calls)
     h_psi        :    225.01s CPU    233.53s WALL (    2465 calls)
     s_psi        :     24.85s CPU     24.89s WALL (    2465 calls)
     g_psi        :      0.66s CPU      0.68s WALL (    2075 calls)

     Called by h_psi:
     h_psi:calbec :     26.49s CPU     27.09s WALL (    2465 calls)
     vloc_psi     :    171.36s CPU    179.18s WALL (    2465 calls)
     add_vuspsi   :     25.07s CPU     25.14s WALL (    2465 calls)

     General routines
     calbec       :     34.77s CPU     35.52s WALL (    2825 calls)
     fft          :      8.25s CPU     12.36s WALL (     319 calls)
     ffts         :      0.10s CPU      0.10s WALL (      50 calls)
     fftw         :    174.56s CPU    182.41s WALL (  227734 calls)
     interpolate  :      0.35s CPU      0.38s WALL (      26 calls)
 
     Parallel routines
     fft_scatt_xy :     27.91s CPU     28.94s WALL (  228103 calls)
     fft_scatt_yz :     72.92s CPU     80.81s WALL (  228103 calls)
 
     PWSCF        :   8m18.66s CPU   9m 1.34s WALL

 
   This run was terminated on:  23:35:28  29Mar2021            

=------------------------------------------------------------------------------=
   JOB DONE.
=------------------------------------------------------------------------------=
