
     Program PWSCF v.6.7MaX starts on 29Mar2021 at 19:57:20 

     This program is part of the open-source Quantum ESPRESSO suite
     for quantum simulation of materials; please cite
         "P. Giannozzi et al., J. Phys.:Condens. Matter 21 395502 (2009);
         "P. Giannozzi et al., J. Phys.:Condens. Matter 29 465901 (2017);
          URL http://www.quantum-espresso.org", 
     in publications or presentations arising from this work. More details at
     http://www.quantum-espresso.org/quote

     Parallel version (MPI), running on    48 processors

     MPI processes distributed on     1 nodes
     R & G space division:  proc/nbgrp/npool/nimage =      48
     Reading input from Crdimer0.2-0.1.scf.in

     Current dimensions of program PWSCF are:
     Max number of different atomic species (ntypx) = 10
     Max number of k-points (npk) =  40000
     Max angular momentum in pseudopotentials (lmaxx) =  3
     file N.pbe-n-kjpaw_psl.1.0.0.UPF: wavefunction(s)  2S renormalized
     file Cr.pbe-spn-kjpaw_psl.1.0.0.UPF: wavefunction(s)  3S 3P 3D renormalized
     file Cr.pbe-spn-kjpaw_psl.1.0.0.UPF: wavefunction(s)  3S 3P 3D renormalized

     --------------------------------------------
     Parameters for DFT-D3 Dispersion Correction:
     --------------------------------------------
       Reference C6 values for interpolation: 

         atom   Coordination number   C6
         B          0.000           214.36
         B          0.971           150.74
         B          1.944           106.23
         B          2.913            62.89
         B          4.586            56.06
         N          0.000            50.54
         N          0.994            44.25
         N          2.014            39.35
         N          2.990            31.16
         Cr1        0.000          1381.48
         Cr1        1.827           571.38
         Cr1       10.619           306.69
         Cr2        0.000          1381.48
         Cr2        1.827           571.38
         Cr2       10.619           306.69

       Values used:

         atom   Coordination number  R0_AB[au]  C6      C8
         B          3.340            3.039     62.89   2505.90
         B          3.336            3.039     62.89   2506.00
         B          3.344            3.039     62.89   2505.79
         B          3.337            3.039     62.89   2505.97
         B          3.349            3.039     62.88   2505.66
         B          3.336            3.039     62.89   2505.99
         N          3.135            2.478     31.22    688.69
         N          3.134            2.478     31.22    688.70
         N          3.157            2.478     31.21    688.50
         N          3.140            2.478     31.22    688.64
         N          3.136            2.478     31.22    688.68
         N          3.134            2.478     31.22    688.70
         N          3.138            2.478     31.22    688.66
         N          3.134            2.478     31.22    688.69
         N          3.135            2.478     31.22    688.68
         B          3.336            3.039     62.89   2506.00
         B          3.336            3.039     62.89   2506.00
         B          3.336            3.039     62.89   2505.99
         B          3.349            3.039     62.88   2505.66
         B          3.340            3.039     62.89   2505.90
         B          3.336            3.039     62.89   2506.00
         N          3.138            2.478     31.22    688.66
         B          3.335            3.039     62.89   2506.01
         B          3.336            3.039     62.89   2506.00
         B          3.361            3.039     62.87   2505.31
         N          3.134            2.478     31.22    688.70
         N          3.134            2.478     31.22    688.70
         N          3.136            2.478     31.22    688.68
         N          3.136            2.478     31.22    688.68
         N          3.157            2.478     31.21    688.50
         N          3.140            2.478     31.22    688.64
         B          3.361            3.039     62.87   2505.31
         Cr1        0.110            3.252   1381.48 127494.68
         Cr2        0.110            3.252   1381.48 127494.68

         Molecular C6 ( Ry / a.u.^6 ) =     79164.75


     Subspace diagonalization in iterative solution of the eigenvalue problem:
     one sub-group per band group will be used
     scalapack distributed-memory algorithm (size of sub-group:  6*  6 procs)

 
     Parallelization info
     --------------------
     sticks:   dense  smooth     PW     G-vecs:    dense   smooth      PW
     Min         235      98     26                36277     9874    1408
     Max         236      99     27                36282     9883    1425
     Sum       11311    4741   1285              1741401   474235   68095
 


     bravais-lattice index     =            4
     lattice parameter (alat)  =      18.9275  a.u.
     unit-cell volume          =   10553.3021 (a.u.)^3
     number of atoms/cell      =           34
     number of atomic types    =            4
     number of electrons       =       156.00
     number of Kohn-Sham states=           94
     kinetic-energy cutoff     =      48.0000  Ry
     charge density cutoff     =     457.0000  Ry
     scf convergence threshold =      1.0E-07
     mixing beta               =       0.5000
     number of iterations used =            8  plain     mixing
     Exchange-correlation= SLA  PW   PBX  PBC
                           (   1   4   3   4   0   0   0)

     celldm(1)=  18.927497  celldm(2)=   0.000000  celldm(3)=   1.797125
     celldm(4)=   0.000000  celldm(5)=   0.000000  celldm(6)=   0.000000

     crystal axes: (cart. coord. in units of alat)
               a(1) = (   1.000000   0.000000   0.000000 )  
               a(2) = (  -0.500000   0.866025   0.000000 )  
               a(3) = (   0.000000   0.000000   1.797125 )  

     reciprocal axes: (cart. coord. in units 2 pi/alat)
               b(1) = (  1.000000  0.577350  0.000000 )  
               b(2) = (  0.000000  1.154701  0.000000 )  
               b(3) = (  0.000000  0.000000  0.556444 )  


     PseudoPot. # 1 for B  read from file:
     /home/sf05/q-e-qe-6.7MaX-Release/pseudo/B.pbe-n-kjpaw_psl.1.0.0.UPF
     MD5 check sum: d9c678ba5d3b2fd7b74e61139c9288d8
     Pseudo is Projector augmented-wave + core cor, Zval =  3.0
     Generated using "atomic" code by A. Dal Corso  v.5.1.2
     Shape of augmentation charge: PSQ
     Using radial grid of 1059 points,  4 beta functions with: 
                l(1) =   0
                l(2) =   0
                l(3) =   1
                l(4) =   1
     Q(r) pseudized with 0 coefficients 


     PseudoPot. # 2 for N  read from file:
     /home/sf05/q-e-qe-6.7MaX-Release/pseudo/N.pbe-n-kjpaw_psl.1.0.0.UPF
     MD5 check sum: e0e4e94a9c4025c5b51bd7d8793849bd
     Pseudo is Projector augmented-wave + core cor, Zval =  5.0
     Generated using "atomic" code by A. Dal Corso  v.5.1.2
     Shape of augmentation charge: PSQ
     Using radial grid of 1085 points,  4 beta functions with: 
                l(1) =   0
                l(2) =   0
                l(3) =   1
                l(4) =   1
     Q(r) pseudized with 0 coefficients 


     PseudoPot. # 3 for Cr read from file:
     /home/sf05/q-e-qe-6.7MaX-Release/pseudo/Cr.pbe-spn-kjpaw_psl.1.0.0.UPF
     MD5 check sum: 198f1a2427a48552563eee314eba32ba
     Pseudo is Projector augmented-wave + core cor, Zval = 14.0
     Generated using &quot;atomic&quot; code by A. Dal Corso  v.6.3
     Shape of augmentation charge: PSQ
     Using radial grid of 1183 points,  6 beta functions with: 
                l(1) =   0
                l(2) =   0
                l(3) =   1
                l(4) =   1
                l(5) =   2
                l(6) =   2
     Q(r) pseudized with 0 coefficients 


     PseudoPot. # 4 for Cr read from file:
     /home/sf05/q-e-qe-6.7MaX-Release/pseudo/Cr.pbe-spn-kjpaw_psl.1.0.0.UPF
     MD5 check sum: 198f1a2427a48552563eee314eba32ba
     Pseudo is Projector augmented-wave + core cor, Zval = 14.0
     Generated using &quot;atomic&quot; code by A. Dal Corso  v.6.3
     Shape of augmentation charge: PSQ
     Using radial grid of 1183 points,  6 beta functions with: 
                l(1) =   0
                l(2) =   0
                l(3) =   1
                l(4) =   1
                l(5) =   2
                l(6) =   2
     Q(r) pseudized with 0 coefficients 


     atomic species   valence    mass     pseudopotential
        B              3.00    10.81100     B ( 1.00)
        N              5.00    14.00674     N ( 1.00)
        Cr1           14.00    51.99610     Cr( 1.00)
        Cr2           14.00    51.99610     Cr( 1.00)

     Starting magnetic structure 
     atomic species   magnetization
        B            0.000
        N            0.000
        Cr1          1.000
        Cr2          1.000

     No symmetry found



   Cartesian axes

     site n.     atom                  positions (alat units)
         1           B   tau(   1) = (  -0.1250000   0.2165064   0.8985623  )
         2           B   tau(   2) = (   0.3750000   0.6495191   0.8985623  )
         3           B   tau(   3) = (   0.2500000   0.0000000   0.8985623  )
         4           B   tau(   4) = (   0.7500000   0.0000000   0.8985623  )
         5           B   tau(   5) = (   0.1250000   0.2165064   0.8985623  )
         6           B   tau(   6) = (  -0.3750000   0.6495191   0.8985623  )
         7           N   tau(   7) = (   0.7500005   0.2886748   0.8985623  )
         8           N   tau(   8) = (   0.3750005   0.5051812   0.8985623  )
         9           N   tau(   9) = (   0.3750005   0.0721685   0.8985623  )
        10           N   tau(  10) = (   0.6250005   0.0721685   0.8985623  )
        11           N   tau(  11) = (   0.2500005   0.2886748   0.8985623  )
        12           N   tau(  12) = (   0.6250005   0.5051812   0.8985623  )
        13           N   tau(  13) = (   0.0000005   0.2886748   0.8985623  )
        14           N   tau(  14) = (   0.2500005   0.7216875   0.8985623  )
        15           N   tau(  15) = (  -0.2499995   0.7216875   0.8985623  )
        16           B   tau(  16) = (   0.0000000   0.4330127   0.8985623  )
        17           B   tau(  17) = (   0.1250000   0.6495191   0.8985623  )
        18           B   tau(  18) = (  -0.1250000   0.6495191   0.8985623  )
        19           B   tau(  19) = (   0.3750000   0.2165064   0.8985623  )
        20           B   tau(  20) = (   0.6250000   0.2165064   0.8985623  )
        21           B   tau(  21) = (   0.5000000   0.4330127   0.8985623  )
        22           N   tau(  22) = (   0.5000005   0.2886748   0.8985623  )
        23           B   tau(  23) = (  -0.2500000   0.4330127   0.8985623  )
        24           B   tau(  24) = (   0.2500000   0.4330127   0.8985623  )
        25           B   tau(  25) = (   0.5000000   0.0000000   0.8985623  )
        26           N   tau(  26) = (  -0.1249995   0.5051812   0.8985623  )
        27           N   tau(  27) = (   0.1250005   0.5051812   0.8985623  )
        28           N   tau(  28) = (   0.0000005   0.7216875   0.8985623  )
        29           N   tau(  29) = (   0.5000005   0.7216875   0.8985623  )
        30           N   tau(  30) = (   0.1250005   0.0721685   0.8985623  )
        31           N   tau(  31) = (   0.8750005   0.0721685   0.8985623  )
        32           B   tau(  32) = (   0.0000000   0.0000000   0.8985623  )
        33           Cr1 tau(  33) = (   0.4500000   0.0866025   1.2040735  )
        34           Cr2 tau(  34) = (   0.0500000   0.0866025   1.2040735  )

     number of k points=    15  Gaussian smearing, width (Ry)=  0.0000
                       cart. coord. in units 2pi/alat
        k(    1) = (   0.1666667   0.2886751   0.0000000), wk =   0.0740741
        k(    2) = (   0.1666667  -0.4811252   0.0000000), wk =   0.0740741
        k(    3) = (   0.1666667  -0.0962250   0.0000000), wk =   0.0740741
        k(    4) = (  -0.5000000  -0.8660254   0.0000000), wk =   0.0370370
        k(    5) = (  -0.1666667   0.2886751   0.0000000), wk =   0.0740741
        k(    6) = (   0.3333333   0.0000000   0.0000000), wk =   0.0740741
        k(    7) = (  -0.1666667  -0.4811252   0.0000000), wk =   0.0740741
        k(    8) = (   0.5000000  -0.0962250   0.0000000), wk =   0.0740741
        k(    9) = (  -0.3333333  -0.3849002   0.0000000), wk =   0.0740741
        k(   10) = (   0.5000000   0.0962250   0.0000000), wk =   0.0740741
        k(   11) = (  -0.3333333   0.3849002   0.0000000), wk =   0.0740741
        k(   12) = (  -0.1666667  -0.0962250   0.0000000), wk =   0.0740741
        k(   13) = (  -0.0000000  -0.1924501   0.0000000), wk =   0.0740741
        k(   14) = (   0.5000000  -0.8660254   0.0000000), wk =   0.0370370
        k(   15) = (  -1.0000000   0.0000000   0.0000000), wk =   0.0370370

     Dense  grid:  1741401 G-vectors     FFT dimensions: ( 135, 135, 240)

     Smooth grid:   474235 G-vectors     FFT dimensions: (  90,  90, 160)

     Estimated max dynamical RAM per process >     218.62 MB

     Estimated total dynamical RAM >      10.25 GB
     Generating pointlists ...
     new r_m :   0.0595 (alat units)  1.1269 (a.u.) for type    1
     new r_m :   0.0595 (alat units)  1.1269 (a.u.) for type    2
     new r_m :   0.1299 (alat units)  2.4587 (a.u.) for type    3
     new r_m :   0.1299 (alat units)  2.4587 (a.u.) for type    4

     Initial potential from superposition of free atoms

     starting charge  155.99382, renormalised to  156.00000

     negative rho (up, down):  6.551E-03 4.655E-04
     Starting wfcs are  148 randomized atomic wfcs
     Checking if some PAW data can be deallocated... 

     total cpu time spent up to now is       30.5 secs

     Self-consistent Calculation

     iteration #  1     ecut=    48.00 Ry     beta= 0.50
     Davidson diagonalization with overlap
     ethr =  1.00E-02,  avg # of iterations =  2.8

     negative rho (up, down):  4.717E-03 2.924E-03

     total cpu time spent up to now is       98.8 secs

     total energy              =   -1130.76722618 Ry
     estimated scf accuracy    <      11.36943445 Ry

     total magnetization       =    12.00 Bohr mag/cell
     absolute magnetization    =    12.17 Bohr mag/cell

     iteration #  2     ecut=    48.00 Ry     beta= 0.50
     Davidson diagonalization with overlap
     ethr =  7.29E-03,  avg # of iterations =  2.7

     negative rho (up, down):  7.717E-03 8.414E-03

     total cpu time spent up to now is      159.3 secs

     total energy              =   -1132.98394794 Ry
     estimated scf accuracy    <       3.46644682 Ry

     total magnetization       =    11.33 Bohr mag/cell
     absolute magnetization    =    11.34 Bohr mag/cell

     iteration #  3     ecut=    48.00 Ry     beta= 0.50
     Davidson diagonalization with overlap
     ethr =  2.22E-03,  avg # of iterations =  6.5

     negative rho (up, down):  3.507E-03 4.255E-03

     total cpu time spent up to now is      218.7 secs

     total energy              =   -1133.59519989 Ry
     estimated scf accuracy    <       0.74640384 Ry

     total magnetization       =    12.00 Bohr mag/cell
     absolute magnetization    =    12.05 Bohr mag/cell

     iteration #  4     ecut=    48.00 Ry     beta= 0.50
     Davidson diagonalization with overlap
     ethr =  4.78E-04,  avg # of iterations =  6.9

     negative rho (up, down):  6.762E-03 1.220E-02

     total cpu time spent up to now is      277.9 secs

     total energy              =   -1133.80196163 Ry
     estimated scf accuracy    <       0.24399484 Ry

     total magnetization       =    12.00 Bohr mag/cell
     absolute magnetization    =    12.01 Bohr mag/cell

     iteration #  5     ecut=    48.00 Ry     beta= 0.50
     Davidson diagonalization with overlap
     ethr =  1.56E-04,  avg # of iterations =  7.8

     negative rho (up, down):  4.563E-03 9.395E-03

     total cpu time spent up to now is      342.4 secs

     total energy              =   -1133.80879615 Ry
     estimated scf accuracy    <       0.02453093 Ry

     total magnetization       =    12.00 Bohr mag/cell
     absolute magnetization    =    12.00 Bohr mag/cell

     iteration #  6     ecut=    48.00 Ry     beta= 0.50
     Davidson diagonalization with overlap
     c_bands:  1 eigenvalues not converged
     c_bands:  2 eigenvalues not converged
     c_bands:  2 eigenvalues not converged
     c_bands:  3 eigenvalues not converged
     c_bands:  1 eigenvalues not converged
     c_bands:  2 eigenvalues not converged
     c_bands:  1 eigenvalues not converged
     c_bands:  1 eigenvalues not converged
     c_bands:  2 eigenvalues not converged
     c_bands:  1 eigenvalues not converged
     ethr =  1.57E-05,  avg # of iterations = 14.6

     negative rho (up, down):  3.408E-03 8.015E-03

     total cpu time spent up to now is      434.1 secs

     total energy              =   -1133.81437324 Ry
     estimated scf accuracy    <       0.00189742 Ry

     total magnetization       =    12.00 Bohr mag/cell
     absolute magnetization    =    12.01 Bohr mag/cell

     iteration #  7     ecut=    48.00 Ry     beta= 0.50
     Davidson diagonalization with overlap
     c_bands:  1 eigenvalues not converged
     c_bands:  1 eigenvalues not converged
     c_bands:  1 eigenvalues not converged
     c_bands:  1 eigenvalues not converged
     c_bands:  2 eigenvalues not converged
     c_bands:  1 eigenvalues not converged
     ethr =  1.22E-06,  avg # of iterations = 12.6

     negative rho (up, down):  3.009E-03 7.376E-03

     total cpu time spent up to now is      512.0 secs

     total energy              =   -1133.81533934 Ry
     estimated scf accuracy    <       0.00031845 Ry

     total magnetization       =    12.00 Bohr mag/cell
     absolute magnetization    =    12.00 Bohr mag/cell

     iteration #  8     ecut=    48.00 Ry     beta= 0.50
     Davidson diagonalization with overlap
     c_bands:  1 eigenvalues not converged
     ethr =  2.04E-07,  avg # of iterations =  3.3

     negative rho (up, down):  2.882E-03 7.236E-03

     total cpu time spent up to now is      543.3 secs

     total energy              =   -1133.81556718 Ry
     estimated scf accuracy    <       0.00008446 Ry

     total magnetization       =    12.00 Bohr mag/cell
     absolute magnetization    =    12.00 Bohr mag/cell

     iteration #  9     ecut=    48.00 Ry     beta= 0.50
     Davidson diagonalization with overlap
     c_bands:  2 eigenvalues not converged
     ethr =  5.41E-08,  avg # of iterations =  2.6

     negative rho (up, down):  2.842E-03 7.237E-03

     total cpu time spent up to now is      582.9 secs

     total energy              =   -1133.81572429 Ry
     estimated scf accuracy    <       0.00000809 Ry

     total magnetization       =    12.00 Bohr mag/cell
     absolute magnetization    =    12.00 Bohr mag/cell

     iteration # 10     ecut=    48.00 Ry     beta= 0.50
     Davidson diagonalization with overlap
     ethr =  5.18E-09,  avg # of iterations =  4.3

     negative rho (up, down):  2.831E-03 7.235E-03

     total cpu time spent up to now is      651.3 secs

     total energy              =   -1133.81574974 Ry
     estimated scf accuracy    <       0.00000345 Ry

     total magnetization       =    12.00 Bohr mag/cell
     absolute magnetization    =    12.00 Bohr mag/cell

     iteration # 11     ecut=    48.00 Ry     beta= 0.50
     Davidson diagonalization with overlap
     ethr =  2.21E-09,  avg # of iterations =  2.5

     negative rho (up, down):  2.827E-03 7.249E-03

     total cpu time spent up to now is      712.2 secs

     total energy              =   -1133.81579224 Ry
     estimated scf accuracy    <       0.00000021 Ry

     total magnetization       =    12.00 Bohr mag/cell
     absolute magnetization    =    12.00 Bohr mag/cell

     iteration # 12     ecut=    48.00 Ry     beta= 0.50
     Davidson diagonalization with overlap
     ethr =  1.33E-10,  avg # of iterations =  4.0

     negative rho (up, down):  2.825E-03 7.256E-03
 
     Magnetic moment per site:
     atom:    1    charge:    0.8803    magn:    0.0001    constr:    0.0000
     atom:    2    charge:    0.8803    magn:    0.0002    constr:    0.0000
     atom:    3    charge:    0.8804    magn:    0.0017    constr:    0.0000
     atom:    4    charge:    0.8803    magn:    0.0010    constr:    0.0000
     atom:    5    charge:    0.8805    magn:    0.0005    constr:    0.0000
     atom:    6    charge:    0.8803    magn:    0.0002    constr:    0.0000
     atom:    7    charge:    2.8610    magn:    0.0007    constr:    0.0000
     atom:    8    charge:    2.8609    magn:    0.0003    constr:    0.0000
     atom:    9    charge:    2.8607    magn:    0.0118    constr:    0.0000
     atom:   10    charge:    2.8606    magn:    0.0059    constr:    0.0000
     atom:   11    charge:    2.8608    magn:    0.0029    constr:    0.0000
     atom:   12    charge:    2.8609    magn:    0.0002    constr:    0.0000
     atom:   13    charge:    2.8597    magn:    0.0037    constr:    0.0000
     atom:   14    charge:    2.8598    magn:    0.0007    constr:    0.0000
     atom:   15    charge:    2.8598    magn:    0.0019    constr:    0.0000
     atom:   16    charge:    0.8800    magn:    0.0004    constr:    0.0000
     atom:   17    charge:    0.8800    magn:    0.0002    constr:    0.0000
     atom:   18    charge:    0.8800    magn:    0.0002    constr:    0.0000
     atom:   19    charge:    0.8799    magn:    0.0005    constr:    0.0000
     atom:   20    charge:    0.8797    magn:    0.0001    constr:    0.0000
     atom:   21    charge:    0.8798    magn:    0.0004    constr:    0.0000
     atom:   22    charge:    2.8610    magn:    0.0036    constr:    0.0000
     atom:   23    charge:    0.8799    magn:    0.0001    constr:    0.0000
     atom:   24    charge:    0.8799    magn:    0.0001    constr:    0.0000
     atom:   25    charge:    0.8803    magn:    0.0003    constr:    0.0000
     atom:   26    charge:    2.8598    magn:    0.0002    constr:    0.0000
     atom:   27    charge:    2.8598    magn:    0.0003    constr:    0.0000
     atom:   28    charge:    2.8596    magn:    0.0031    constr:    0.0000
     atom:   29    charge:    2.8595    magn:    0.0031    constr:    0.0000
     atom:   30    charge:    2.8594    magn:    0.0118    constr:    0.0000
     atom:   31    charge:    2.8593    magn:    0.0059    constr:    0.0000
     atom:   32    charge:    0.8806    magn:    0.0003    constr:    0.0000
     atom:   33    charge:   12.8318    magn:    4.8202    constr:    0.0000
     atom:   34    charge:   12.8318    magn:    4.8202    constr:    0.0000

     total cpu time spent up to now is      768.2 secs

     End of self-consistent calculation

 ------ SPIN UP ------------


          k = 0.1667 0.2887 0.0000 ( 59267 PWs)   bands (ev):

   -72.5095 -72.5092 -43.9743 -43.9734 -43.9695 -43.9689 -43.9612 -43.9609
   -21.2719 -20.6946 -20.6702 -20.1278 -20.1216 -19.6212 -19.5970 -19.1240
   -18.7318 -18.7071 -18.4797 -18.4759 -18.2203 -18.1123 -18.0959 -17.8732
   -12.5084 -12.2291 -12.2268 -11.8470 -11.8379 -11.6816 -11.2225 -11.2058
   -10.4151 -10.3918 -10.1463 -10.1328  -9.6157  -9.6088  -8.8626  -8.8509
    -8.8469  -8.7977  -8.7766  -8.6199  -8.2204  -8.0837  -8.0344  -7.8528
    -7.8506  -7.4651  -7.4583  -7.3135  -7.2765  -7.2356  -7.2259  -6.9825
    -6.9797  -6.6001  -6.5527  -6.1787  -6.1749  -5.8969  -5.4419  -5.3324
    -5.2888  -5.2236  -4.9404  -4.9205  -4.5325  -4.3823  -4.3577  -4.0027
    -2.5186  -1.5691  -1.5118  -1.5015  -1.4712  -1.4264  -1.4029  -1.3686
    -1.3432  -1.3360  -1.3027  -1.1853   0.5865   0.7140   0.9910   1.1648
     1.2341   1.3977   1.4942   1.5510   1.5944   1.7574

          k = 0.1667-0.4811 0.0000 ( 59291 PWs)   bands (ev):

   -72.5095 -72.5092 -43.9743 -43.9734 -43.9695 -43.9689 -43.9612 -43.9609
   -21.1423 -20.9362 -20.7462 -20.1850 -19.8289 -19.4905 -19.3427 -19.1980
   -19.0389 -18.8017 -18.6678 -18.5666 -18.1749 -18.1113 -17.9449 -17.7476
   -12.3728 -12.1381 -12.0672 -11.9299 -11.7077 -11.6777 -11.5761 -10.9651
   -10.9140 -10.6475 -10.5458  -9.8842  -9.7170  -9.3596  -9.1346  -8.6959
    -8.6472  -8.5770  -8.4125  -8.3915  -8.1844  -8.1472  -8.0905  -8.0699
    -7.7126  -7.6466  -7.5194  -7.4955  -7.3811  -7.1942  -7.0912  -6.8863
    -6.6456  -6.4132  -6.2050  -6.1814  -5.9960  -5.9523  -5.8072  -5.7696
    -5.4747  -5.4201  -5.2372  -5.0631  -4.4708  -4.3689  -4.1119  -3.7909
    -2.5125  -1.5738  -1.5098  -1.5014  -1.4699  -1.4238  -1.4073  -1.3683
    -1.3431  -1.3360  -1.3025  -1.1861   0.5685   0.6103   1.0168   1.0439
     1.1629   1.2623   1.3923   1.7858   1.8916   1.9128

          k = 0.1667-0.0962 0.0000 ( 59226 PWs)   bands (ev):

   -72.5095 -72.5092 -43.9743 -43.9734 -43.9695 -43.9689 -43.9612 -43.9609
   -21.3381 -20.5613 -20.3703 -20.3616 -20.0169 -20.0010 -19.8284 -18.7592
   -18.7431 -18.4029 -18.3955 -18.3771 -18.2885 -18.2850 -18.1006 -18.0935
   -12.5300 -12.5275 -12.4317 -11.6063 -11.5985 -11.4483 -11.4452 -10.9501
   -10.9468  -9.9542  -9.9486  -9.6996  -9.3998  -9.3954  -9.2540  -9.2505
    -9.0653  -9.0639  -8.9499  -8.3483  -8.3438  -7.9253  -7.9229  -7.9087
    -7.8688  -7.7939  -7.6308  -7.6101  -7.1597  -7.1163  -6.9831  -6.9131
    -6.9069  -6.8731  -6.5558  -6.5505  -6.2809  -5.3794  -5.3412  -5.1667
    -5.0887  -4.8394  -4.8256  -4.7727  -4.6399  -4.6220  -4.3729  -4.3557
    -2.5248  -1.5643  -1.5136  -1.5016  -1.4723  -1.4303  -1.3990  -1.3688
    -1.3432  -1.3361  -1.3029  -1.1845   0.6007   0.8108   0.9603   1.1806
     1.2825   1.3086   1.4483   1.5540   1.6462   1.6734

          k =-0.5000-0.8660 0.0000 ( 59292 PWs)   bands (ev):

   -72.5095 -72.5092 -43.9743 -43.9734 -43.9695 -43.9689 -43.9612 -43.9609
   -21.0867 -21.0591 -20.4956 -20.4857 -19.4548 -19.4475 -19.4348 -19.4307
   -19.0249 -19.0036 -18.3614 -18.3573 -18.3279 -18.3255 -17.8192 -17.8098
   -12.1031 -12.1008 -12.0774 -12.0741 -11.9047 -11.8936 -11.3598 -11.3437
   -10.2636 -10.2533 -10.1580 -10.1557 -10.1510 -10.1492  -8.6236  -8.5833
    -8.5787  -8.5614  -8.5579  -8.5569  -7.8926  -7.8886  -7.8821  -7.8800
    -7.8433  -7.8409  -7.8036  -7.7815  -7.5222  -7.5008  -6.6388  -6.6282
    -6.3924  -6.3526  -6.3328  -6.3144  -6.2194  -6.2043  -5.7443  -5.7113
    -5.5774  -5.5569  -4.7638  -4.7564  -4.7152  -4.6966  -3.9119  -3.8896
    -2.4565  -1.6655  -1.5052  -1.4950  -1.4592  -1.4249  -1.4052  -1.3640
    -1.3545  -1.3506  -1.3189  -1.2786   0.8248   0.9976   1.0571   1.2001
     1.2518   1.3391   1.5126   1.5869   1.6316   1.6422

          k =-0.1667 0.2887 0.0000 ( 59267 PWs)   bands (ev):

   -72.5095 -72.5092 -43.9743 -43.9734 -43.9695 -43.9689 -43.9612 -43.9609
   -21.2719 -20.6946 -20.6702 -20.1277 -20.1216 -19.6212 -19.5970 -19.1240
   -18.7317 -18.7072 -18.4797 -18.4759 -18.2203 -18.1123 -18.0959 -17.8732
   -12.5084 -12.2291 -12.2268 -11.8470 -11.8380 -11.6816 -11.2224 -11.2059
   -10.4151 -10.3918 -10.1463 -10.1328  -9.6156  -9.6089  -8.8626  -8.8509
    -8.8469  -8.7977  -8.7767  -8.6199  -8.2204  -8.0837  -8.0344  -7.8528
    -7.8505  -7.4652  -7.4583  -7.3135  -7.2765  -7.2355  -7.2259  -6.9826
    -6.9797  -6.6000  -6.5527  -6.1787  -6.1749  -5.8969  -5.4420  -5.3324
    -5.2888  -5.2235  -4.9404  -4.9205  -4.5326  -4.3823  -4.3577  -4.0027
    -2.5186  -1.5691  -1.5118  -1.5015  -1.4712  -1.4264  -1.4029  -1.3686
    -1.3432  -1.3360  -1.3027  -1.1853   0.5865   0.7140   0.9910   1.1648
     1.2341   1.3977   1.4942   1.5510   1.5944   1.7573

          k = 0.3333 0.0000 0.0000 ( 59267 PWs)   bands (ev):

   -72.5095 -72.5092 -43.9743 -43.9734 -43.9695 -43.9689 -43.9612 -43.9609
   -21.2714 -20.7127 -20.6519 -20.1364 -20.1112 -19.6400 -19.5803 -19.1263
   -18.7423 -18.6913 -18.4906 -18.4664 -18.2172 -18.1311 -18.0832 -17.8722
   -12.5068 -12.2378 -12.2191 -11.8547 -11.8329 -11.6801 -11.2338 -11.1938
   -10.4155 -10.3904 -10.1564 -10.1242  -9.6195  -9.6034  -8.8636  -8.8546
    -8.8382  -8.8138  -8.7627  -8.6208  -8.2223  -8.1302  -7.9869  -7.8537
    -7.8477  -7.4693  -7.4532  -7.3263  -7.2591  -7.2420  -7.2192  -6.9921
    -6.9719  -6.6456  -6.5146  -6.1807  -6.1722  -5.9031  -5.4418  -5.3442
    -5.2663  -5.2238  -4.9576  -4.9048  -4.5271  -4.4093  -4.3414  -4.0013
    -2.4835  -1.6244  -1.5078  -1.4974  -1.4644  -1.4291  -1.4009  -1.3659
    -1.3490  -1.3466  -1.3118  -1.2565   0.8372   0.9258   1.0883   1.1510
     1.2682   1.3778   1.4602   1.5086   1.5486   1.6354

          k =-0.1667-0.4811 0.0000 ( 59291 PWs)   bands (ev):

   -72.5095 -72.5092 -43.9743 -43.9734 -43.9695 -43.9689 -43.9612 -43.9609
   -21.1423 -20.9362 -20.7462 -20.1850 -19.8289 -19.4905 -19.3427 -19.1979
   -19.0390 -18.8017 -18.6678 -18.5666 -18.1749 -18.1113 -17.9449 -17.7476
   -12.3729 -12.1380 -12.0672 -11.9299 -11.7077 -11.6776 -11.5762 -10.9651
   -10.9140 -10.6475 -10.5458  -9.8841  -9.7170  -9.3596  -9.1346  -8.6959
    -8.6471  -8.5771  -8.4124  -8.3915  -8.1844  -8.1472  -8.0906  -8.0699
    -7.7126  -7.6466  -7.5193  -7.4955  -7.3811  -7.1942  -7.0912  -6.8863
    -6.6456  -6.4132  -6.2050  -6.1814  -5.9960  -5.9523  -5.8072  -5.7696
    -5.4747  -5.4201  -5.2372  -5.0631  -4.4708  -4.3689  -4.1119  -3.7909
    -2.5125  -1.5738  -1.5098  -1.5014  -1.4699  -1.4238  -1.4073  -1.3683
    -1.3431  -1.3360  -1.3025  -1.1861   0.5685   0.6103   1.0168   1.0439
     1.1629   1.2623   1.3923   1.7859   1.8914   1.9128

          k = 0.5000-0.0962 0.0000 ( 59291 PWs)   bands (ev):

   -72.5095 -72.5092 -43.9743 -43.9734 -43.9695 -43.9689 -43.9612 -43.9609
   -21.1395 -20.9439 -20.7412 -20.1834 -19.8283 -19.4934 -19.3478 -19.1927
   -19.0407 -18.8034 -18.6564 -18.5724 -18.1656 -18.1256 -17.9419 -17.7471
   -12.3704 -12.1390 -12.0657 -11.9344 -11.7180 -11.6659 -11.5776 -10.9662
   -10.9113 -10.6453 -10.5486  -9.8823  -9.7172  -9.3602  -9.1340  -8.6848
    -8.6481  -8.5745  -8.4251  -8.4154  -8.1826  -8.1264  -8.1014  -8.0599
    -7.7085  -7.6471  -7.5189  -7.4963  -7.3758  -7.1956  -7.0921  -6.8842
    -6.6463  -6.4235  -6.2206  -6.1807  -5.9797  -5.9519  -5.8064  -5.7743
    -5.4757  -5.4220  -5.2116  -5.0772  -4.4534  -4.3946  -4.1071  -3.7901
    -2.4565  -1.6655  -1.5051  -1.4950  -1.4592  -1.4262  -1.4047  -1.3640
    -1.3545  -1.3506  -1.3189  -1.2786   0.7957   0.9930   1.0603   1.1600
     1.2483   1.2696   1.3937   1.5381   1.6640   1.8022

          k =-0.3333-0.3849 0.0000 ( 59291 PWs)   bands (ev):

   -72.5095 -72.5092 -43.9743 -43.9734 -43.9695 -43.9689 -43.9612 -43.9609
   -21.1405 -20.9412 -20.7432 -20.1829 -19.8308 -19.4910 -19.3426 -19.1970
   -19.0433 -18.8012 -18.6578 -18.5722 -18.1672 -18.1232 -17.9421 -17.7474
   -12.3721 -12.1357 -12.0684 -11.9322 -11.7086 -11.6768 -11.5772 -10.9659
   -10.9116 -10.6449 -10.5487  -9.8823  -9.7172  -9.3604  -9.1353  -8.6886
    -8.6464  -8.5764  -8.4153  -8.4108  -8.1837  -8.1342  -8.0914  -8.0715
    -7.7087  -7.6459  -7.5242  -7.4911  -7.3742  -7.1956  -7.0928  -6.8928
    -6.6441  -6.4144  -6.2056  -6.1831  -5.9931  -5.9508  -5.8066  -5.7822
    -5.4756  -5.4158  -5.2119  -5.0790  -4.4548  -4.3923  -4.1069  -3.7904
    -2.4767  -1.6303  -1.5070  -1.4971  -1.4636  -1.4246  -1.4059  -1.3658
    -1.3491  -1.3464  -1.3115  -1.2569   0.7160   0.9018   1.0244   1.0990
     1.1918   1.2884   1.3504   1.6168   1.7305   1.8584

          k = 0.5000 0.0962 0.0000 ( 59291 PWs)   bands (ev):

   -72.5095 -72.5092 -43.9743 -43.9734 -43.9695 -43.9689 -43.9612 -43.9609
   -21.1395 -20.9439 -20.7412 -20.1834 -19.8283 -19.4934 -19.3478 -19.1927
   -19.0407 -18.8034 -18.6564 -18.5724 -18.1656 -18.1256 -17.9419 -17.7471
   -12.3704 -12.1390 -12.0657 -11.9344 -11.7180 -11.6659 -11.5776 -10.9661
   -10.9112 -10.6454 -10.5486  -9.8823  -9.7172  -9.3602  -9.1340  -8.6848
    -8.6481  -8.5745  -8.4251  -8.4154  -8.1826  -8.1264  -8.1014  -8.0599
    -7.7085  -7.6470  -7.5189  -7.4964  -7.3758  -7.1957  -7.0921  -6.8842
    -6.6462  -6.4235  -6.2206  -6.1806  -5.9797  -5.9519  -5.8065  -5.7743
    -5.4758  -5.4220  -5.2116  -5.0771  -4.4534  -4.3946  -4.1071  -3.7901
    -2.4565  -1.6655  -1.5051  -1.4950  -1.4592  -1.4262  -1.4047  -1.3640
    -1.3545  -1.3506  -1.3189  -1.2786   0.7958   0.9930   1.0603   1.1599
     1.2483   1.2696   1.3937   1.5380   1.6640   1.8022

          k =-0.3333 0.3849 0.0000 ( 59291 PWs)   bands (ev):

   -72.5095 -72.5092 -43.9743 -43.9734 -43.9695 -43.9689 -43.9612 -43.9609
   -21.1405 -20.9411 -20.7432 -20.1829 -19.8308 -19.4910 -19.3426 -19.1970
   -19.0433 -18.8012 -18.6578 -18.5721 -18.1672 -18.1232 -17.9421 -17.7474
   -12.3721 -12.1357 -12.0685 -11.9322 -11.7086 -11.6769 -11.5772 -10.9660
   -10.9116 -10.6449 -10.5487  -9.8824  -9.7172  -9.3604  -9.1353  -8.6886
    -8.6464  -8.5764  -8.4153  -8.4108  -8.1838  -8.1343  -8.0913  -8.0715
    -7.7086  -7.6459  -7.5242  -7.4910  -7.3742  -7.1956  -7.0929  -6.8928
    -6.6442  -6.4144  -6.2056  -6.1832  -5.9931  -5.9509  -5.8065  -5.7823
    -5.4755  -5.4158  -5.2120  -5.0790  -4.4549  -4.3923  -4.1069  -3.7904
    -2.4767  -1.6303  -1.5070  -1.4971  -1.4636  -1.4246  -1.4059  -1.3658
    -1.3491  -1.3464  -1.3115  -1.2569   0.7160   0.9018   1.0244   1.0990
     1.1918   1.2885   1.3505   1.6169   1.7305   1.8584

          k =-0.1667-0.0962 0.0000 ( 59226 PWs)   bands (ev):

   -72.5095 -72.5092 -43.9743 -43.9734 -43.9695 -43.9689 -43.9612 -43.9609
   -21.3381 -20.5613 -20.3703 -20.3616 -20.0169 -20.0010 -19.8284 -18.7592
   -18.7431 -18.4029 -18.3955 -18.3771 -18.2885 -18.2851 -18.1005 -18.0935
   -12.5300 -12.5275 -12.4317 -11.6063 -11.5984 -11.4483 -11.4452 -10.9501
   -10.9468  -9.9542  -9.9487  -9.6996  -9.3998  -9.3954  -9.2540  -9.2505
    -9.0653  -9.0639  -8.9499  -8.3483  -8.3438  -7.9253  -7.9229  -7.9087
    -7.8687  -7.7939  -7.6308  -7.6101  -7.1597  -7.1163  -6.9832  -6.9130
    -6.9069  -6.8731  -6.5558  -6.5504  -6.2810  -5.3794  -5.3412  -5.1666
    -5.0888  -4.8394  -4.8256  -4.7727  -4.6399  -4.6220  -4.3729  -4.3557
    -2.5248  -1.5643  -1.5136  -1.5016  -1.4723  -1.4303  -1.3990  -1.3688
    -1.3432  -1.3361  -1.3029  -1.1845   0.6007   0.8108   0.9603   1.1806
     1.2825   1.3086   1.4483   1.5540   1.6462   1.6734

          k =-0.0000-0.1925 0.0000 ( 59226 PWs)   bands (ev):

   -72.5095 -72.5092 -43.9743 -43.9734 -43.9695 -43.9689 -43.9612 -43.9609
   -21.3383 -20.5564 -20.3774 -20.3632 -20.0100 -20.0008 -19.8317 -18.7548
   -18.7437 -18.4298 -18.3863 -18.3768 -18.2783 -18.2766 -18.1039 -18.0953
   -12.5381 -12.5198 -12.4313 -11.6068 -11.5982 -11.4560 -11.4359 -10.9515
   -10.9468  -9.9519  -9.9515  -9.6991  -9.4035  -9.3899  -9.2537  -9.2528
    -9.0656  -9.0632  -8.9505  -8.3462  -8.3459  -7.9259  -7.9201  -7.8887
    -7.8685  -7.7957  -7.6720  -7.6030  -7.1444  -7.1060  -6.9820  -6.9122
    -6.9089  -6.8851  -6.5550  -6.5506  -6.2815  -5.3764  -5.3345  -5.1669
    -5.0886  -4.8880  -4.8047  -4.7781  -4.6201  -4.6087  -4.3823  -4.3558
    -2.5404  -1.5437  -1.5158  -1.5035  -1.4750  -1.4291  -1.3999  -1.3700
    -1.3407  -1.3315  -1.2995  -1.1342   0.4509   0.7492   0.9307   1.1551
     1.2342   1.3899   1.4260   1.5830   1.6417   1.8043

          k = 0.5000-0.8660 0.0000 ( 59292 PWs)   bands (ev):

   -72.5095 -72.5092 -43.9743 -43.9734 -43.9695 -43.9689 -43.9612 -43.9609
   -21.0867 -21.0592 -20.4956 -20.4857 -19.4548 -19.4475 -19.4348 -19.4307
   -19.0248 -19.0037 -18.3614 -18.3572 -18.3280 -18.3255 -17.8192 -17.8098
   -12.1031 -12.1007 -12.0774 -12.0742 -11.9047 -11.8935 -11.3597 -11.3437
   -10.2636 -10.2533 -10.1580 -10.1558 -10.1511 -10.1492  -8.6236  -8.5832
    -8.5785  -8.5614  -8.5579  -8.5569  -7.8926  -7.8886  -7.8820  -7.8800
    -7.8434  -7.8409  -7.8036  -7.7815  -7.5222  -7.5009  -6.6388  -6.6281
    -6.3924  -6.3526  -6.3328  -6.3144  -6.2192  -6.2043  -5.7443  -5.7113
    -5.5775  -5.5570  -4.7638  -4.7564  -4.7152  -4.6966  -3.9119  -3.8896
    -2.4565  -1.6655  -1.5052  -1.4950  -1.4592  -1.4249  -1.4052  -1.3640
    -1.3545  -1.3506  -1.3189  -1.2786   0.8249   0.9976   1.0571   1.2000
     1.2519   1.3391   1.5124   1.5869   1.6314   1.6421

          k =-1.0000 0.0000 0.0000 ( 59292 PWs)   bands (ev):

   -72.5095 -72.5092 -43.9743 -43.9734 -43.9695 -43.9689 -43.9612 -43.9609
   -21.1026 -21.0405 -20.4995 -20.4865 -19.4561 -19.4505 -19.4353 -19.4202
   -19.0389 -18.9908 -18.4106 -18.3380 -18.3244 -18.3001 -17.8196 -17.8113
   -12.1404 -12.0907 -12.0689 -12.0531 -11.9032 -11.8945 -11.3736 -11.3306
   -10.2664 -10.2654 -10.1555 -10.1535 -10.1465 -10.1464  -8.6617  -8.6063
    -8.5748  -8.5527  -8.5372  -8.5124  -7.9031  -7.8920  -7.8840  -7.8825
    -7.8454  -7.8347  -7.8203  -7.7712  -7.5389  -7.4863  -6.6341  -6.6298
    -6.3994  -6.3510  -6.3299  -6.2913  -6.2333  -6.1932  -5.7684  -5.6944
    -5.5918  -5.5430  -4.8551  -4.7197  -4.7009  -4.6594  -3.9127  -3.8922
    -2.5286  -1.5523  -1.5109  -1.5034  -1.4722  -1.4233  -1.4079  -1.3693
    -1.3404  -1.3315  -1.2992  -1.1362   0.4498   0.5312   1.0337   1.0434
     1.1235   1.5025   1.5828   1.5969   1.6135   1.9228

 ------ SPIN DOWN ----------


          k = 0.1667 0.2887 0.0000 ( 59267 PWs)   bands (ev):

   -68.1412 -68.1409 -39.6433 -39.6423 -39.6331 -39.6322 -39.6294 -39.6290
   -21.2644 -20.6863 -20.6643 -20.1204 -20.1146 -19.6130 -19.5913 -19.1166
   -18.7218 -18.7007 -18.4725 -18.4689 -18.2114 -18.1054 -18.0905 -17.8659
   -12.5034 -12.2239 -12.2220 -11.8424 -11.8340 -11.6775 -11.2170 -11.2014
   -10.4100 -10.3867 -10.1406 -10.1284  -9.6105  -9.6044  -8.8454  -8.8413
    -8.8341  -8.7925  -8.7730  -8.6154  -8.2161  -8.0539  -8.0147  -7.8481
    -7.8461  -7.4589  -7.4530  -7.2830  -7.2597  -7.2306  -7.2218  -6.9781
    -6.9754  -6.5735  -6.5361  -6.1737  -6.1704  -5.8736  -5.4366  -5.3008
    -5.2702  -5.2187  -4.9172  -4.9036  -4.5078  -4.3627  -4.3433  -3.9832
    -0.3771   0.7222   1.0330   1.1803   1.3109   1.3716   1.4407   1.5251
     1.5528   1.7981   1.9397   2.0980   2.1539   2.2147   2.2855   2.3262
     2.4274   2.4566   2.5048   2.5842   2.5886   2.6227

          k = 0.1667-0.4811 0.0000 ( 59291 PWs)   bands (ev):

   -68.1412 -68.1409 -39.6433 -39.6423 -39.6331 -39.6322 -39.6294 -39.6290
   -21.1340 -20.9302 -20.7390 -20.1775 -19.8217 -19.4834 -19.3353 -19.1906
   -19.0317 -18.7950 -18.6574 -18.5613 -18.1643 -18.1075 -17.9376 -17.7402
   -12.3677 -12.1330 -12.0630 -11.9256 -11.7032 -11.6734 -11.5716 -10.9602
   -10.9085 -10.6419 -10.5415  -9.8785  -9.7123  -9.3544  -9.1298  -8.6623
    -8.6422  -8.5714  -8.4082  -8.3747  -8.1799  -8.1215  -8.0854  -8.0660
    -7.7074  -7.6421  -7.5143  -7.4917  -7.3554  -7.1890  -7.0867  -6.8630
    -6.6400  -6.3912  -6.1812  -6.1767  -5.9734  -5.9467  -5.8023  -5.7483
    -5.4700  -5.3994  -5.2043  -5.0502  -4.4409  -4.3597  -4.0920  -3.7715
    -0.3464   0.7010   1.0018   1.0732   1.1261   1.2889   1.3252   1.7345
     1.8381   1.9229   2.0255   2.0944   2.1769   2.2439   2.2835   2.3321
     2.3909   2.4679   2.4996   2.5154   2.5375   2.6150

          k = 0.1667-0.0962 0.0000 ( 59226 PWs)   bands (ev):

   -68.1412 -68.1409 -39.6433 -39.6423 -39.6331 -39.6322 -39.6294 -39.6290
   -21.3308 -20.5529 -20.3635 -20.3556 -20.0081 -19.9946 -19.8227 -18.7496
   -18.7361 -18.3937 -18.3878 -18.3702 -18.2814 -18.2782 -18.0942 -18.0875
   -12.5248 -12.5229 -12.4270 -11.6015 -11.5944 -11.4435 -11.4405 -10.9451
   -10.9421  -9.9490  -9.9440  -9.6942  -9.3947  -9.3906  -9.2486  -9.2455
    -9.0607  -9.0594  -8.9229  -8.3426  -8.3385  -7.9203  -7.9184  -7.8773
    -7.8615  -7.7895  -7.6081  -7.5927  -7.1273  -7.0974  -6.9782  -6.9082
    -6.9029  -6.8579  -6.5509  -6.5461  -6.2763  -5.3474  -5.3210  -5.1616
    -5.0838  -4.8123  -4.8027  -4.7544  -4.6185  -4.6057  -4.3539  -4.3395
    -0.4059   0.7481   1.0475   1.0837   1.2334   1.4322   1.5059   1.5540
     1.7788   1.8492   1.9711   2.0401   2.0711   2.1433   2.2749   2.3305
     2.4101   2.4348   2.4865   2.5712   2.5963   2.6240

          k =-0.5000-0.8660 0.0000 ( 59292 PWs)   bands (ev):

   -68.1412 -68.1409 -39.6433 -39.6423 -39.6331 -39.6322 -39.6294 -39.6290
   -21.0777 -21.0532 -20.4884 -20.4795 -19.4455 -19.4391 -19.4286 -19.4243
   -19.0167 -18.9981 -18.3522 -18.3479 -18.3221 -18.3201 -17.8116 -17.8031
   -12.0970 -12.0952 -12.0734 -12.0704 -11.9000 -11.8899 -11.3545 -11.3393
   -10.2578 -10.2487 -10.1526 -10.1508 -10.1460 -10.1447  -8.5887  -8.5764
    -8.5730  -8.5541  -8.5531  -8.5417  -7.8866  -7.8836  -7.8777  -7.8758
    -7.8384  -7.8357  -7.7800  -7.7625  -7.5171  -7.4973  -6.6331  -6.6238
    -6.3520  -6.3276  -6.3129  -6.3000  -6.2138  -6.1997  -5.7205  -5.6953
    -5.5717  -5.5530  -4.7363  -4.7302  -4.6976  -4.6836  -3.8906  -3.8731
    -0.2659   0.3920   1.0183   1.0495   1.3705   1.4271   1.5104   1.5498
     1.7655   1.7800   2.0333   2.0387   2.1608   2.3029   2.3194   2.3636
     2.4021   2.4354   2.4827   2.4849   2.5606   2.6332

          k =-0.1667 0.2887 0.0000 ( 59267 PWs)   bands (ev):

   -68.1412 -68.1409 -39.6433 -39.6423 -39.6331 -39.6322 -39.6294 -39.6290
   -21.2644 -20.6863 -20.6644 -20.1204 -20.1146 -19.6130 -19.5913 -19.1166
   -18.7217 -18.7007 -18.4725 -18.4689 -18.2114 -18.1054 -18.0906 -17.8659
   -12.5034 -12.2239 -12.2220 -11.8424 -11.8340 -11.6775 -11.2169 -11.2015
   -10.4100 -10.3866 -10.1406 -10.1284  -9.6104  -9.6044  -8.8454  -8.8413
    -8.8341  -8.7925  -8.7731  -8.6154  -8.2161  -8.0539  -8.0148  -7.8481
    -7.8461  -7.4589  -7.4529  -7.2830  -7.2597  -7.2306  -7.2218  -6.9781
    -6.9754  -6.5735  -6.5361  -6.1737  -6.1704  -5.8736  -5.4367  -5.3008
    -5.2702  -5.2186  -4.9171  -4.9036  -4.5078  -4.3627  -4.3433  -3.9832
    -0.3771   0.7222   1.0331   1.1802   1.3109   1.3716   1.4408   1.5251
     1.5528   1.7981   1.9396   2.0979   2.1542   2.2148   2.2855   2.3259
     2.4276   2.4567   2.5042   2.5842   2.5885   2.6214

          k = 0.3333 0.0000 0.0000 ( 59267 PWs)   bands (ev):

   -68.1412 -68.1409 -39.6433 -39.6423 -39.6331 -39.6322 -39.6294 -39.6290
   -21.2640 -20.7015 -20.6490 -20.1276 -20.1062 -19.6285 -19.5773 -19.1182
   -18.7306 -18.6881 -18.4814 -18.4609 -18.2090 -18.1203 -18.0801 -17.8652
   -12.5022 -12.2312 -12.2155 -11.8490 -11.8294 -11.6762 -11.2274 -11.1906
   -10.4102 -10.3857 -10.1488 -10.1212  -9.6138  -9.5998  -8.8486  -8.8414
    -8.8282  -8.8064  -8.7607  -8.6161  -8.2176  -8.0872  -7.9811  -7.8490
    -7.8437  -7.4622  -7.4490  -7.2926  -7.2471  -7.2363  -7.2160  -6.9861
    -6.9687  -6.6055  -6.5084  -6.1755  -6.1680  -5.8772  -5.4366  -5.3100
    -5.2548  -5.2189  -4.9302  -4.8915  -4.5042  -4.3815  -4.3311  -3.9823
    -0.3338   0.5228   1.0400   1.1581   1.3302   1.4563   1.4898   1.5340
     1.5706   1.7597   2.0489   2.1700   2.1851   2.2382   2.2584   2.3828
     2.4160   2.4411   2.4824   2.5528   2.5735   2.5871

          k =-0.1667-0.4811 0.0000 ( 59291 PWs)   bands (ev):

   -68.1412 -68.1409 -39.6433 -39.6423 -39.6331 -39.6322 -39.6294 -39.6290
   -21.1340 -20.9302 -20.7390 -20.1775 -19.8218 -19.4834 -19.3353 -19.1906
   -19.0317 -18.7950 -18.6574 -18.5613 -18.1643 -18.1075 -17.9376 -17.7402
   -12.3677 -12.1329 -12.0630 -11.9255 -11.7032 -11.6734 -11.5716 -10.9602
   -10.9085 -10.6419 -10.5415  -9.8784  -9.7123  -9.3544  -9.1298  -8.6623
    -8.6422  -8.5714  -8.4082  -8.3747  -8.1799  -8.1215  -8.0855  -8.0660
    -7.7074  -7.6421  -7.5143  -7.4917  -7.3554  -7.1890  -7.0867  -6.8630
    -6.6400  -6.3912  -6.1812  -6.1767  -5.9734  -5.9467  -5.8022  -5.7483
    -5.4701  -5.3994  -5.2043  -5.0502  -4.4409  -4.3597  -4.0920  -3.7715
    -0.3464   0.7011   1.0018   1.0732   1.1261   1.2889   1.3252   1.7345
     1.8381   1.9230   2.0255   2.0943   2.1768   2.2438   2.2835   2.3322
     2.3910   2.4678   2.4997   2.5153   2.5376   2.6150

          k = 0.5000-0.0962 0.0000 ( 59291 PWs)   bands (ev):

   -68.1412 -68.1409 -39.6433 -39.6423 -39.6331 -39.6322 -39.6294 -39.6290
   -21.1319 -20.9359 -20.7354 -20.1764 -19.8214 -19.4855 -19.3389 -19.1869
   -19.0329 -18.7962 -18.6493 -18.5655 -18.1570 -18.1183 -17.9356 -17.7398
   -12.3659 -12.1337 -12.0617 -11.9291 -11.7120 -11.6633 -11.5729 -10.9610
   -10.9064 -10.6402 -10.5437  -9.8770  -9.7125  -9.3549  -9.1294  -8.6564
    -8.6426  -8.5695  -8.4122  -8.3922  -8.1784  -8.1101  -8.0948  -8.0574
    -7.7041  -7.6425  -7.5139  -7.4924  -7.3522  -7.1901  -7.0874  -6.8620
    -6.6404  -6.3966  -6.1903  -6.1761  -5.9645  -5.9465  -5.8016  -5.7505
    -5.4709  -5.4006  -5.1898  -5.0581  -4.4291  -4.3758  -4.0897  -3.7711
    -0.2667   0.3969   0.9978   1.0841   1.1381   1.2933   1.5729   1.7465
     1.7690   1.9971   2.0611   2.1279   2.1863   2.2410   2.2964   2.3583
     2.4249   2.4431   2.4987   2.5210   2.5691   2.5991

          k =-0.3333-0.3849 0.0000 ( 59291 PWs)   bands (ev):

   -68.1412 -68.1409 -39.6433 -39.6423 -39.6331 -39.6322 -39.6294 -39.6290
   -21.1326 -20.9339 -20.7368 -20.1761 -19.8232 -19.4838 -19.3352 -19.1899
   -19.0348 -18.7946 -18.6502 -18.5653 -18.1582 -18.1166 -17.9357 -17.7400
   -12.3672 -12.1311 -12.0639 -11.9275 -11.7040 -11.6726 -11.5724 -10.9608
   -10.9066 -10.6399 -10.5438  -9.8770  -9.7125  -9.3550  -9.1304  -8.6581
    -8.6416  -8.5709  -8.4096  -8.3860  -8.1794  -8.1146  -8.0861  -8.0673
    -7.7043  -7.6415  -7.5184  -7.4880  -7.3514  -7.1901  -7.0879  -6.8667
    -6.6388  -6.3919  -6.1821  -6.1772  -5.9718  -5.9456  -5.8018  -5.7552
    -5.4708  -5.3973  -5.1901  -5.0589  -4.4302  -4.3743  -4.0895  -3.7713
    -0.2972   0.4868   1.0047   1.0533   1.1911   1.2569   1.4635   1.7682
     1.9005   1.9410   2.0355   2.0643   2.1531   2.2904   2.3066   2.3511
     2.4080   2.4393   2.4725   2.5298   2.5686   2.6008

          k = 0.5000 0.0962 0.0000 ( 59291 PWs)   bands (ev):

   -68.1412 -68.1409 -39.6433 -39.6423 -39.6331 -39.6322 -39.6294 -39.6290
   -21.1319 -20.9359 -20.7354 -20.1764 -19.8214 -19.4855 -19.3389 -19.1869
   -19.0329 -18.7962 -18.6493 -18.5655 -18.1570 -18.1183 -17.9356 -17.7398
   -12.3659 -12.1337 -12.0617 -11.9292 -11.7120 -11.6633 -11.5729 -10.9609
   -10.9064 -10.6402 -10.5437  -9.8770  -9.7125  -9.3549  -9.1294  -8.6564
    -8.6426  -8.5695  -8.4122  -8.3922  -8.1784  -8.1101  -8.0948  -8.0574
    -7.7042  -7.6424  -7.5139  -7.4925  -7.3522  -7.1902  -7.0874  -6.8620
    -6.6403  -6.3966  -6.1903  -6.1760  -5.9645  -5.9465  -5.8017  -5.7505
    -5.4709  -5.4006  -5.1898  -5.0581  -4.4291  -4.3758  -4.0897  -3.7711
    -0.2667   0.3969   0.9978   1.0841   1.1382   1.2933   1.5729   1.7464
     1.7690   1.9970   2.0610   2.1279   2.1862   2.2412   2.2965   2.3585
     2.4250   2.4433   2.4993   2.5208   2.5692   2.6001

          k =-0.3333 0.3849 0.0000 ( 59291 PWs)   bands (ev):

   -68.1412 -68.1409 -39.6433 -39.6423 -39.6331 -39.6322 -39.6294 -39.6290
   -21.1326 -20.9339 -20.7368 -20.1760 -19.8232 -19.4838 -19.3352 -19.1899
   -19.0348 -18.7946 -18.6502 -18.5653 -18.1582 -18.1166 -17.9357 -17.7400
   -12.3671 -12.1311 -12.0639 -11.9275 -11.7040 -11.6727 -11.5724 -10.9608
   -10.9066 -10.6399 -10.5438  -9.8771  -9.7125  -9.3550  -9.1304  -8.6581
    -8.6416  -8.5708  -8.4096  -8.3860  -8.1794  -8.1146  -8.0860  -8.0673
    -7.7042  -7.6415  -7.5184  -7.4880  -7.3514  -7.1901  -7.0880  -6.8667
    -6.6389  -6.3918  -6.1821  -6.1773  -5.9718  -5.9457  -5.8017  -5.7552
    -5.4707  -5.3972  -5.1902  -5.0589  -4.4303  -4.3743  -4.0895  -3.7713
    -0.2972   0.4868   1.0047   1.0533   1.1911   1.2569   1.4636   1.7682
     1.9004   1.9409   2.0356   2.0643   2.1534   2.2904   2.3062   2.3512
     2.4081   2.4392   2.4726   2.5297   2.5688   2.6010

          k =-0.1667-0.0962 0.0000 ( 59226 PWs)   bands (ev):

   -68.1412 -68.1409 -39.6433 -39.6423 -39.6330 -39.6322 -39.6294 -39.6290
   -21.3308 -20.5529 -20.3634 -20.3556 -20.0081 -19.9946 -19.8227 -18.7496
   -18.7361 -18.3937 -18.3878 -18.3702 -18.2814 -18.2782 -18.0942 -18.0875
   -12.5248 -12.5229 -12.4270 -11.6015 -11.5944 -11.4435 -11.4406 -10.9451
   -10.9421  -9.9490  -9.9441  -9.6942  -9.3947  -9.3906  -9.2486  -9.2455
    -9.0607  -9.0594  -8.9229  -8.3426  -8.3385  -7.9203  -7.9183  -7.8773
    -7.8614  -7.7896  -7.6081  -7.5927  -7.1273  -7.0974  -6.9783  -6.9082
    -6.9029  -6.8579  -6.5509  -6.5460  -6.2764  -5.3474  -5.3210  -5.1615
    -5.0839  -4.8123  -4.8027  -4.7544  -4.6185  -4.6057  -4.3539  -4.3396
    -0.4059   0.7481   1.0475   1.0837   1.2335   1.4322   1.5059   1.5540
     1.7788   1.8491   1.9710   2.0400   2.0710   2.1432   2.2751   2.3306
     2.4099   2.4348   2.4868   2.5706   2.5966   2.6238

          k =-0.0000-0.1925 0.0000 ( 59226 PWs)   bands (ev):

   -68.1412 -68.1409 -39.6433 -39.6423 -39.6331 -39.6322 -39.6294 -39.6290
   -21.3309 -20.5493 -20.3688 -20.3567 -20.0027 -19.9948 -19.8251 -18.7460
   -18.7370 -18.4145 -18.3791 -18.3710 -18.2748 -18.2710 -18.0960 -18.0892
   -12.5318 -12.5163 -12.4267 -11.6019 -11.5944 -11.4501 -11.4325 -10.9461
   -10.9423  -9.9470  -9.9464  -9.6939  -9.3981  -9.3858  -9.2480  -9.2477
    -9.0612  -9.0586  -8.9232  -8.3409  -8.3402  -7.9212  -7.9158  -7.8696
    -7.8581  -7.7909  -7.6313  -7.5885  -7.1183  -7.0919  -6.9773  -6.9075
    -6.9046  -6.8646  -6.5500  -6.5465  -6.2767  -5.3450  -5.3182  -5.1618
    -5.0836  -4.8449  -4.7866  -4.7569  -4.6099  -4.5952  -4.3580  -4.3406
    -0.4229   0.8895   1.0069   1.1432   1.1965   1.3901   1.4738   1.5430
     1.7392   1.8527   1.9661   1.9661   2.0171   2.1453   2.2757   2.3187
     2.3890   2.4550   2.5194   2.5743   2.6224   2.6365

          k = 0.5000-0.8660 0.0000 ( 59292 PWs)   bands (ev):

   -68.1412 -68.1409 -39.6433 -39.6423 -39.6331 -39.6322 -39.6294 -39.6290
   -21.0777 -21.0532 -20.4884 -20.4795 -19.4455 -19.4391 -19.4286 -19.4243
   -19.0166 -18.9981 -18.3521 -18.3479 -18.3222 -18.3201 -17.8116 -17.8031
   -12.0970 -12.0951 -12.0734 -12.0705 -11.9000 -11.8899 -11.3544 -11.3393
   -10.2578 -10.2487 -10.1526 -10.1509 -10.1461 -10.1447  -8.5887  -8.5763
    -8.5728  -8.5542  -8.5531  -8.5417  -7.8866  -7.8835  -7.8777  -7.8759
    -7.8385  -7.8358  -7.7800  -7.7625  -7.5172  -7.4974  -6.6330  -6.6237
    -6.3520  -6.3276  -6.3129  -6.3000  -6.2137  -6.1997  -5.7205  -5.6953
    -5.5718  -5.5531  -4.7363  -4.7301  -4.6976  -4.6836  -3.8906  -3.8731
    -0.2660   0.3921   1.0183   1.0496   1.3705   1.4271   1.5103   1.5498
     1.7654   1.7800   2.0331   2.0385   2.1608   2.3028   2.3195   2.3639
     2.4025   2.4355   2.4825   2.4845   2.5607   2.6331

          k =-1.0000 0.0000 0.0000 ( 59292 PWs)   bands (ev):

   -68.1412 -68.1409 -39.6433 -39.6423 -39.6331 -39.6322 -39.6294 -39.6290
   -21.0912 -21.0376 -20.4912 -20.4801 -19.4469 -19.4414 -19.4285 -19.4166
   -19.0280 -18.9876 -18.3925 -18.3319 -18.3192 -18.2993 -17.8112 -17.8048
   -12.1299 -12.0863 -12.0661 -12.0516 -11.8988 -11.8909 -11.3669 -11.3275
   -10.2595 -10.2587 -10.1504 -10.1490 -10.1427 -10.1426  -8.6173  -8.5977
    -8.5694  -8.5497  -8.5358  -8.5070  -7.8950  -7.8856  -7.8792  -7.8782
    -7.8323  -7.8314  -7.7936  -7.7570  -7.5316  -7.4845  -6.6288  -6.6258
    -6.3578  -6.3275  -6.3115  -6.2847  -6.2257  -6.1899  -5.7359  -5.6831
    -5.5839  -5.5410  -4.8031  -4.7001  -4.6887  -4.6579  -3.8896  -3.8757
    -0.3667   0.8430   1.0109   1.0666   1.2186   1.2793   1.4871   1.5989
     1.6074   1.7420   1.8847   2.1117   2.1439   2.2493   2.2817   2.3204
     2.3879   2.5119   2.5216   2.5918   2.6127   2.6161

     the Fermi energy is    -0.8860 ev

!    total energy              =   -1133.81580535 Ry

     total all-electron energy =     -6753.491508 Ry
     estimated scf accuracy    <       0.00000002 Ry
     smearing contrib. (-TS)   =      -0.00000000 Ry
     internal energy E=F+TS    =   -1133.81580535 Ry

     The total energy is F=E-TS. E is the sum of the following terms:
     one-electron contribution =   -3920.95404587 Ry
     hartree contribution      =    1989.02775889 Ry
     xc contribution           =    -186.19773423 Ry
     ewald contribution        =    1343.67772140 Ry
     DFT-D3 Dispersion         =      -0.14074265 Ry
     one-center paw contrib.   =    -359.22876289 Ry

     total magnetization       =    12.00 Bohr mag/cell
     absolute magnetization    =    12.00 Bohr mag/cell

     convergence has been achieved in  12 iterations

     Writing output data file ./mytmp/Crdimer0.2-0.1.save/
 
     init_run     :     24.83s CPU     30.09s WALL (       1 calls)
     electrons    :    601.21s CPU    738.00s WALL (       1 calls)

     Called by init_run:
     wfcinit      :     19.09s CPU     23.40s WALL (       1 calls)
     potinit      :      1.79s CPU      2.15s WALL (       1 calls)
     hinit0       :      1.99s CPU      2.25s WALL (       1 calls)

     Called by electrons:
     c_bands      :    498.30s CPU    607.58s WALL (      12 calls)
     sum_band     :     81.49s CPU    103.94s WALL (      12 calls)
     v_of_rho     :      4.97s CPU      6.24s WALL (      13 calls)
     newd         :      9.55s CPU     12.59s WALL (      13 calls)
     PAW_pot      :      5.77s CPU      6.58s WALL (      13 calls)
     mix_rho      :      1.18s CPU      1.33s WALL (      12 calls)

     Called by c_bands:
     init_us_2    :      4.34s CPU      4.45s WALL (     750 calls)
     cegterg      :    485.74s CPU    594.47s WALL (     360 calls)

     Called by *egterg:
     cdiaghg      :     33.06s CPU     53.98s WALL (    2476 calls)
     h_psi        :    296.11s CPU    372.02s WALL (    2506 calls)
     s_psi        :     24.34s CPU     24.80s WALL (    2506 calls)
     g_psi        :      0.63s CPU      0.70s WALL (    2116 calls)

     Called by h_psi:
     h_psi:calbec :     35.97s CPU     39.79s WALL (    2506 calls)
     vloc_psi     :    233.01s CPU    304.18s WALL (    2506 calls)
     add_vuspsi   :     25.30s CPU     26.16s WALL (    2506 calls)

     General routines
     calbec       :     46.59s CPU     51.34s WALL (    2866 calls)
     fft          :      6.05s CPU      8.95s WALL (     319 calls)
     ffts         :      0.14s CPU      0.18s WALL (      50 calls)
     fftw         :    252.92s CPU    337.79s WALL (  227370 calls)
     interpolate  :      0.48s CPU      0.63s WALL (      26 calls)
 
     Parallel routines
     fft_scatt_xy :     26.41s CPU     28.51s WALL (  227739 calls)
     fft_scatt_yz :    153.74s CPU    233.00s WALL (  227739 calls)
 
     PWSCF        :  10m31.06s CPU  12m55.61s WALL

 
   This run was terminated on:  20:10:16  29Mar2021            

=------------------------------------------------------------------------------=
   JOB DONE.
=------------------------------------------------------------------------------=
