
     Program PWSCF v.6.7MaX starts on 30Mar2021 at 18:51: 2 

     This program is part of the open-source Quantum ESPRESSO suite
     for quantum simulation of materials; please cite
         "P. Giannozzi et al., J. Phys.:Condens. Matter 21 395502 (2009);
         "P. Giannozzi et al., J. Phys.:Condens. Matter 29 465901 (2017);
          URL http://www.quantum-espresso.org", 
     in publications or presentations arising from this work. More details at
     http://www.quantum-espresso.org/quote

     Parallel version (MPI), running on    48 processors

     MPI processes distributed on     1 nodes
     R & G space division:  proc/nbgrp/npool/nimage =      48
     Reading input from 2Cr0.14.scf.in

     Current dimensions of program PWSCF are:
     Max number of different atomic species (ntypx) = 10
     Max number of k-points (npk) =  40000
     Max angular momentum in pseudopotentials (lmaxx) =  3
     file Cr.pbe-spn-kjpaw_psl.1.0.0.UPF: wavefunction(s)  3S 3P 3D renormalized
     file Cr.pbe-spn-kjpaw_psl.1.0.0.UPF: wavefunction(s)  3S 3P 3D renormalized

     --------------------------------------------
     Parameters for DFT-D3 Dispersion Correction:
     --------------------------------------------
       Reference C6 values for interpolation: 

         atom   Coordination number   C6
         Cr1        0.000          1381.48
         Cr1        1.827           571.38
         Cr1       10.619           306.69
         Cr2        0.000          1381.48
         Cr2        1.827           571.38
         Cr2       10.619           306.69

       Values used:

         atom   Coordination number  R0_AB[au]  C6      C8
         Cr1        0.676            3.252   1350.17 124605.86
         Cr2        0.676            3.252   1350.17 124605.86

         Molecular C6 ( Ry / a.u.^6 ) =      5400.70


     Subspace diagonalization in iterative solution of the eigenvalue problem:
     one sub-group per band group will be used
     scalapack distributed-memory algorithm (size of sub-group:  6*  6 procs)

 
     Parallelization info
     --------------------
     sticks:   dense  smooth     PW     G-vecs:    dense   smooth      PW
     Min         235      98     26                36277     9874    1408
     Max         236      99     27                36282     9883    1425
     Sum       11311    4741   1285              1741401   474235   68095
 


     bravais-lattice index     =            4
     lattice parameter (alat)  =      18.9275  a.u.
     unit-cell volume          =   10553.3021 (a.u.)^3
     number of atoms/cell      =            2
     number of atomic types    =            2
     number of electrons       =        28.00
     number of Kohn-Sham states=           18
     kinetic-energy cutoff     =      48.0000  Ry
     charge density cutoff     =     457.0000  Ry
     scf convergence threshold =      1.0E-07
     mixing beta               =       0.5000
     number of iterations used =            8  plain     mixing
     Exchange-correlation= SLA  PW   PBX  PBC
                           (   1   4   3   4   0   0   0)

     celldm(1)=  18.927497  celldm(2)=   0.000000  celldm(3)=   1.797125
     celldm(4)=   0.000000  celldm(5)=   0.000000  celldm(6)=   0.000000

     crystal axes: (cart. coord. in units of alat)
               a(1) = (   1.000000   0.000000   0.000000 )  
               a(2) = (  -0.500000   0.866025   0.000000 )  
               a(3) = (   0.000000   0.000000   1.797125 )  

     reciprocal axes: (cart. coord. in units 2 pi/alat)
               b(1) = (  1.000000  0.577350  0.000000 )  
               b(2) = (  0.000000  1.154701  0.000000 )  
               b(3) = (  0.000000  0.000000  0.556444 )  


     PseudoPot. # 1 for Cr read from file:
     /home/sf05/q-e-qe-6.7MaX-Release/pseudo/Cr.pbe-spn-kjpaw_psl.1.0.0.UPF
     MD5 check sum: 198f1a2427a48552563eee314eba32ba
     Pseudo is Projector augmented-wave + core cor, Zval = 14.0
     Generated using &quot;atomic&quot; code by A. Dal Corso  v.6.3
     Shape of augmentation charge: PSQ
     Using radial grid of 1183 points,  6 beta functions with: 
                l(1) =   0
                l(2) =   0
                l(3) =   1
                l(4) =   1
                l(5) =   2
                l(6) =   2
     Q(r) pseudized with 0 coefficients 


     PseudoPot. # 2 for Cr read from file:
     /home/sf05/q-e-qe-6.7MaX-Release/pseudo/Cr.pbe-spn-kjpaw_psl.1.0.0.UPF
     MD5 check sum: 198f1a2427a48552563eee314eba32ba
     Pseudo is Projector augmented-wave + core cor, Zval = 14.0
     Generated using &quot;atomic&quot; code by A. Dal Corso  v.6.3
     Shape of augmentation charge: PSQ
     Using radial grid of 1183 points,  6 beta functions with: 
                l(1) =   0
                l(2) =   0
                l(3) =   1
                l(4) =   1
                l(5) =   2
                l(6) =   2
     Q(r) pseudized with 0 coefficients 


     atomic species   valence    mass     pseudopotential
        Cr1           14.00    51.99610     Cr( 1.00)
        Cr2           14.00    51.99610     Cr( 1.00)

     Starting magnetic structure 
     atomic species   magnetization
        Cr1          1.000
        Cr2          1.000

      4 Sym. Ops. (no inversion) found ( 2 have fractional translation)



   Cartesian axes

     site n.     atom                  positions (alat units)
         1           Cr1 tau(   1) = (   0.3900000   0.4330127   0.8985623  )
         2           Cr2 tau(   2) = (   0.1100000   0.4330127   0.8985623  )

     number of k points=     9  Gaussian smearing, width (Ry)=  0.0000
                       cart. coord. in units 2pi/alat
        k(    1) = (   0.1666667   0.2886751   0.0000000), wk =   0.1481481
        k(    2) = (   0.1666667  -0.4811252   0.0000000), wk =   0.1481481
        k(    3) = (   0.1666667  -0.0962250   0.0000000), wk =   0.1481481
        k(    4) = (  -0.5000000  -0.8660254   0.0000000), wk =   0.0740741
        k(    5) = (   0.3333333   0.0000000   0.0000000), wk =   0.0740741
        k(    6) = (   0.5000000  -0.0962250   0.0000000), wk =   0.1481481
        k(    7) = (  -0.3333333  -0.3849002   0.0000000), wk =   0.1481481
        k(    8) = (  -0.0000000  -0.1924501   0.0000000), wk =   0.0740741
        k(    9) = (  -1.0000000   0.0000000   0.0000000), wk =   0.0370370

     Dense  grid:  1741401 G-vectors     FFT dimensions: ( 144, 135, 240)

     Smooth grid:   474235 G-vectors     FFT dimensions: (  90,  90, 160)

     Estimated max dynamical RAM per process >     152.07 MB

     Estimated total dynamical RAM >       7.13 GB
     Generating pointlists ...
     new r_m :   0.1155 (alat units)  2.1861 (a.u.) for type    1
     new r_m :   0.1155 (alat units)  2.1861 (a.u.) for type    2

     Initial potential from superposition of free atoms

     starting charge   27.99845, renormalised to   28.00000

     negative rho (up, down):  1.098E-02 4.343E-17
     Starting wfcs are   20 randomized atomic wfcs
     Checking if some PAW data can be deallocated... 

     total cpu time spent up to now is        7.0 secs

     Self-consistent Calculation

     iteration #  1     ecut=    48.00 Ry     beta= 0.50
     Davidson diagonalization with overlap
     ethr =  1.00E-02,  avg # of iterations =  7.1

     negative rho (up, down):  8.098E-03 0.000E+00

     total cpu time spent up to now is       23.5 secs

     total energy              =    -494.13625988 Ry
     estimated scf accuracy    <       4.68482756 Ry

     total magnetization       =     8.00 Bohr mag/cell
     absolute magnetization    =    10.72 Bohr mag/cell

     iteration #  2     ecut=    48.00 Ry     beta= 0.50
     Davidson diagonalization with overlap
     ethr =  1.00E-02,  avg # of iterations =  4.0

     negative rho (up, down):  7.854E-03 7.341E-06

     total cpu time spent up to now is       34.2 secs

     total energy              =    -495.35104504 Ry
     estimated scf accuracy    <       1.86383417 Ry

     total magnetization       =     8.00 Bohr mag/cell
     absolute magnetization    =     9.08 Bohr mag/cell

     iteration #  3     ecut=    48.00 Ry     beta= 0.50
     Davidson diagonalization with overlap
     ethr =  6.66E-03,  avg # of iterations =  1.0

     negative rho (up, down):  3.515E-02 2.447E-02

     total cpu time spent up to now is       43.4 secs

     total energy              =    -495.71683432 Ry
     estimated scf accuracy    <       0.38083404 Ry

     total magnetization       =     8.00 Bohr mag/cell
     absolute magnetization    =     9.01 Bohr mag/cell

     iteration #  4     ecut=    48.00 Ry     beta= 0.50
     Davidson diagonalization with overlap
     ethr =  1.36E-03,  avg # of iterations =  5.9

     negative rho (up, down):  1.959E-02 1.405E-02

     total cpu time spent up to now is       54.7 secs

     total energy              =    -495.74433666 Ry
     estimated scf accuracy    <       0.24642854 Ry

     total magnetization       =     8.00 Bohr mag/cell
     absolute magnetization    =     8.18 Bohr mag/cell

     iteration #  5     ecut=    48.00 Ry     beta= 0.50
     Davidson diagonalization with overlap
     ethr =  8.80E-04,  avg # of iterations =  2.3

     negative rho (up, down):  1.068E-02 7.301E-03

     total cpu time spent up to now is       62.3 secs

     total energy              =    -495.74610223 Ry
     estimated scf accuracy    <       0.02722340 Ry

     total magnetization       =     8.00 Bohr mag/cell
     absolute magnetization    =     8.87 Bohr mag/cell

     iteration #  6     ecut=    48.00 Ry     beta= 0.50
     Davidson diagonalization with overlap
     c_bands:  1 eigenvalues not converged
     c_bands:  1 eigenvalues not converged
     ethr =  9.72E-05,  avg # of iterations =  8.3

     negative rho (up, down):  6.802E-03 5.537E-03

     total cpu time spent up to now is       75.7 secs

     total energy              =    -495.75304216 Ry
     estimated scf accuracy    <       0.00223806 Ry

     total magnetization       =     8.00 Bohr mag/cell
     absolute magnetization    =     8.88 Bohr mag/cell

     iteration #  7     ecut=    48.00 Ry     beta= 0.50
     Davidson diagonalization with overlap
     c_bands:  1 eigenvalues not converged
     c_bands:  2 eigenvalues not converged
     c_bands:  1 eigenvalues not converged
     c_bands:  3 eigenvalues not converged
     c_bands:  2 eigenvalues not converged
     ethr =  7.99E-06,  avg # of iterations =  9.4

     negative rho (up, down):  5.838E-03 4.825E-03

     total cpu time spent up to now is       89.3 secs

     total energy              =    -495.75392986 Ry
     estimated scf accuracy    <       0.00029859 Ry

     total magnetization       =     8.00 Bohr mag/cell
     absolute magnetization    =     8.85 Bohr mag/cell

     iteration #  8     ecut=    48.00 Ry     beta= 0.50
     Davidson diagonalization with overlap
     c_bands:  1 eigenvalues not converged
     c_bands:  1 eigenvalues not converged
     c_bands:  3 eigenvalues not converged
     c_bands:  3 eigenvalues not converged
     c_bands:  2 eigenvalues not converged
     ethr =  1.07E-06,  avg # of iterations = 13.9

     negative rho (up, down):  5.538E-03 4.723E-03

     total cpu time spent up to now is      107.6 secs

     total energy              =    -495.75399482 Ry
     estimated scf accuracy    <       0.00112162 Ry

     total magnetization       =     8.00 Bohr mag/cell
     absolute magnetization    =     8.84 Bohr mag/cell

     iteration #  9     ecut=    48.00 Ry     beta= 0.50
     Davidson diagonalization with overlap
     c_bands:  1 eigenvalues not converged
     ethr =  1.07E-06,  avg # of iterations =  7.1

     negative rho (up, down):  5.427E-03 4.804E-03

     total cpu time spent up to now is      119.4 secs

     total energy              =    -495.75405566 Ry
     estimated scf accuracy    <       0.00107092 Ry

     total magnetization       =     8.00 Bohr mag/cell
     absolute magnetization    =     8.85 Bohr mag/cell

     iteration # 10     ecut=    48.00 Ry     beta= 0.50
     Davidson diagonalization with overlap
     ethr =  1.07E-06,  avg # of iterations =  5.7

     negative rho (up, down):  5.392E-03 4.846E-03

     total cpu time spent up to now is      130.6 secs

     total energy              =    -495.75413396 Ry
     estimated scf accuracy    <       0.00015265 Ry

     total magnetization       =     8.00 Bohr mag/cell
     absolute magnetization    =     8.85 Bohr mag/cell

     iteration # 11     ecut=    48.00 Ry     beta= 0.50
     Davidson diagonalization with overlap
     ethr =  5.45E-07,  avg # of iterations =  1.4

     negative rho (up, down):  5.388E-03 4.848E-03

     total cpu time spent up to now is      135.9 secs

     total energy              =    -495.75413419 Ry
     estimated scf accuracy    <       0.00012603 Ry

     total magnetization       =     8.00 Bohr mag/cell
     absolute magnetization    =     8.85 Bohr mag/cell

     iteration # 12     ecut=    48.00 Ry     beta= 0.50
     Davidson diagonalization with overlap
     ethr =  4.50E-07,  avg # of iterations =  6.2

     negative rho (up, down):  5.388E-03 4.850E-03

     total cpu time spent up to now is      141.5 secs

     total energy              =    -495.75416126 Ry
     estimated scf accuracy    <       0.00020101 Ry

     total magnetization       =     8.00 Bohr mag/cell
     absolute magnetization    =     8.85 Bohr mag/cell

     iteration # 13     ecut=    48.00 Ry     beta= 0.50
     Davidson diagonalization with overlap
     ethr =  4.50E-07,  avg # of iterations =  1.0

     negative rho (up, down):  5.391E-03 4.868E-03

     total cpu time spent up to now is      146.3 secs

     total energy              =    -495.75416921 Ry
     estimated scf accuracy    <       0.00018538 Ry

     total magnetization       =     8.00 Bohr mag/cell
     absolute magnetization    =     8.85 Bohr mag/cell

     iteration # 14     ecut=    48.00 Ry     beta= 0.50
     Davidson diagonalization with overlap
     ethr =  4.50E-07,  avg # of iterations =  1.0

     negative rho (up, down):  5.410E-03 4.864E-03

     total cpu time spent up to now is      151.1 secs

     total energy              =    -495.75418424 Ry
     estimated scf accuracy    <       0.00017118 Ry

     total magnetization       =     8.00 Bohr mag/cell
     absolute magnetization    =     8.85 Bohr mag/cell

     iteration # 15     ecut=    48.00 Ry     beta= 0.50
     Davidson diagonalization with overlap
     ethr =  4.50E-07,  avg # of iterations =  4.6

     negative rho (up, down):  5.450E-03 4.861E-03

     total cpu time spent up to now is      156.5 secs

     total energy              =    -495.75417723 Ry
     estimated scf accuracy    <       0.00107780 Ry

     total magnetization       =     8.00 Bohr mag/cell
     absolute magnetization    =     8.85 Bohr mag/cell

     iteration # 16     ecut=    48.00 Ry     beta= 0.50
     Davidson diagonalization with overlap
     ethr =  4.50E-07,  avg # of iterations =  1.0

     negative rho (up, down):  5.461E-03 4.865E-03

     total cpu time spent up to now is      161.3 secs

     total energy              =    -495.75421021 Ry
     estimated scf accuracy    <       0.00105279 Ry

     total magnetization       =     8.00 Bohr mag/cell
     absolute magnetization    =     8.85 Bohr mag/cell

     iteration # 17     ecut=    48.00 Ry     beta= 0.50
     Davidson diagonalization with overlap
     ethr =  4.50E-07,  avg # of iterations =  1.0

     negative rho (up, down):  5.479E-03 4.867E-03

     total cpu time spent up to now is      166.1 secs

     total energy              =    -495.75418469 Ry
     estimated scf accuracy    <       0.00100032 Ry

     total magnetization       =     8.00 Bohr mag/cell
     absolute magnetization    =     8.85 Bohr mag/cell

     iteration # 18     ecut=    48.00 Ry     beta= 0.50
     Davidson diagonalization with overlap
     ethr =  4.50E-07,  avg # of iterations =  1.0

     negative rho (up, down):  5.466E-03 4.860E-03

     total cpu time spent up to now is      170.9 secs

     total energy              =    -495.75421596 Ry
     estimated scf accuracy    <       0.00098646 Ry

     total magnetization       =     8.00 Bohr mag/cell
     absolute magnetization    =     8.85 Bohr mag/cell

     iteration # 19     ecut=    48.00 Ry     beta= 0.50
     Davidson diagonalization with overlap
     ethr =  4.50E-07,  avg # of iterations =  1.0

     negative rho (up, down):  5.445E-03 4.869E-03

     total cpu time spent up to now is      175.7 secs

     total energy              =    -495.75425467 Ry
     estimated scf accuracy    <       0.00091245 Ry

     total magnetization       =     8.00 Bohr mag/cell
     absolute magnetization    =     8.85 Bohr mag/cell

     iteration # 20     ecut=    48.00 Ry     beta= 0.50
     Davidson diagonalization with overlap
     ethr =  4.50E-07,  avg # of iterations =  6.5

     negative rho (up, down):  5.525E-03 4.856E-03

     total cpu time spent up to now is      181.3 secs

     total energy              =    -495.75432977 Ry
     estimated scf accuracy    <       0.00275667 Ry

     total magnetization       =     8.00 Bohr mag/cell
     absolute magnetization    =     8.86 Bohr mag/cell

     iteration # 21     ecut=    48.00 Ry     beta= 0.50
     Davidson diagonalization with overlap
     ethr =  4.50E-07,  avg # of iterations =  1.0

     negative rho (up, down):  5.634E-03 4.871E-03

     total cpu time spent up to now is      186.2 secs

     total energy              =    -495.75423520 Ry
     estimated scf accuracy    <       0.00277708 Ry

     total magnetization       =     8.00 Bohr mag/cell
     absolute magnetization    =     8.86 Bohr mag/cell

     iteration # 22     ecut=    48.00 Ry     beta= 0.50
     Davidson diagonalization with overlap
     ethr =  4.50E-07,  avg # of iterations =  2.0

     negative rho (up, down):  5.706E-03 4.873E-03

     total cpu time spent up to now is      191.2 secs

     total energy              =    -495.75418540 Ry
     estimated scf accuracy    <       0.00307828 Ry

     total magnetization       =     8.00 Bohr mag/cell
     absolute magnetization    =     8.86 Bohr mag/cell

     iteration # 23     ecut=    48.00 Ry     beta= 0.50
     Davidson diagonalization with overlap
     ethr =  4.50E-07,  avg # of iterations =  6.0

     negative rho (up, down):  5.664E-03 4.894E-03

     total cpu time spent up to now is      196.7 secs

     total energy              =    -495.75413580 Ry
     estimated scf accuracy    <       0.00101193 Ry

     total magnetization       =     8.00 Bohr mag/cell
     absolute magnetization    =     8.86 Bohr mag/cell

     iteration # 24     ecut=    48.00 Ry     beta= 0.50
     Davidson diagonalization with overlap
     ethr =  4.50E-07,  avg # of iterations =  6.4

     negative rho (up, down):  5.518E-03 4.878E-03

     total cpu time spent up to now is      202.3 secs

     total energy              =    -495.75416122 Ry
     estimated scf accuracy    <       0.00017162 Ry

     total magnetization       =     8.00 Bohr mag/cell
     absolute magnetization    =     8.86 Bohr mag/cell

     iteration # 25     ecut=    48.00 Ry     beta= 0.50
     Davidson diagonalization with overlap
     ethr =  4.50E-07,  avg # of iterations =  1.0

     negative rho (up, down):  5.486E-03 4.888E-03

     total cpu time spent up to now is      207.1 secs

     total energy              =    -495.75412084 Ry
     estimated scf accuracy    <       0.00021130 Ry

     total magnetization       =     8.00 Bohr mag/cell
     absolute magnetization    =     8.86 Bohr mag/cell

     iteration # 26     ecut=    48.00 Ry     beta= 0.50
     Davidson diagonalization with overlap
     ethr =  4.50E-07,  avg # of iterations =  6.6

     negative rho (up, down):  5.423E-03 4.870E-03

     total cpu time spent up to now is      212.7 secs

     total energy              =    -495.75414622 Ry
     estimated scf accuracy    <       0.00001861 Ry

     total magnetization       =     8.00 Bohr mag/cell
     absolute magnetization    =     8.86 Bohr mag/cell

     iteration # 27     ecut=    48.00 Ry     beta= 0.50
     Davidson diagonalization with overlap
     ethr =  6.65E-08,  avg # of iterations =  1.8

     negative rho (up, down):  5.404E-03 4.864E-03

     total cpu time spent up to now is      217.6 secs

     total energy              =    -495.75414823 Ry
     estimated scf accuracy    <       0.00001698 Ry

     total magnetization       =     8.00 Bohr mag/cell
     absolute magnetization    =     8.86 Bohr mag/cell

     iteration # 28     ecut=    48.00 Ry     beta= 0.50
     Davidson diagonalization with overlap
     ethr =  6.06E-08,  avg # of iterations =  1.6

     negative rho (up, down):  5.400E-03 4.865E-03

     total cpu time spent up to now is      222.5 secs

     total energy              =    -495.75414757 Ry
     estimated scf accuracy    <       0.00001669 Ry

     total magnetization       =     8.00 Bohr mag/cell
     absolute magnetization    =     8.86 Bohr mag/cell

     iteration # 29     ecut=    48.00 Ry     beta= 0.50
     Davidson diagonalization with overlap
     ethr =  5.96E-08,  avg # of iterations =  6.7

     negative rho (up, down):  5.416E-03 4.865E-03

     total cpu time spent up to now is      228.2 secs

     total energy              =    -495.75413949 Ry
     estimated scf accuracy    <       0.00020109 Ry

     total magnetization       =     8.00 Bohr mag/cell
     absolute magnetization    =     8.86 Bohr mag/cell

     iteration # 30     ecut=    48.00 Ry     beta= 0.50
     Davidson diagonalization with overlap
     ethr =  5.96E-08,  avg # of iterations =  6.4

     negative rho (up, down):  5.408E-03 4.864E-03

     total cpu time spent up to now is      233.9 secs

     total energy              =    -495.75414826 Ry
     estimated scf accuracy    <       0.00002949 Ry

     total magnetization       =     8.00 Bohr mag/cell
     absolute magnetization    =     8.86 Bohr mag/cell

     iteration # 31     ecut=    48.00 Ry     beta= 0.50
     Davidson diagonalization with overlap
     ethr =  5.96E-08,  avg # of iterations =  1.0

     negative rho (up, down):  5.406E-03 4.865E-03

     total cpu time spent up to now is      238.7 secs

     total energy              =    -495.75414506 Ry
     estimated scf accuracy    <       0.00002795 Ry

     total magnetization       =     8.00 Bohr mag/cell
     absolute magnetization    =     8.86 Bohr mag/cell

     iteration # 32     ecut=    48.00 Ry     beta= 0.50
     Davidson diagonalization with overlap
     ethr =  5.96E-08,  avg # of iterations =  4.7

     negative rho (up, down):  5.401E-03 4.865E-03

     total cpu time spent up to now is      244.0 secs

     total energy              =    -495.75414604 Ry
     estimated scf accuracy    <       0.00000387 Ry

     total magnetization       =     8.00 Bohr mag/cell
     absolute magnetization    =     8.86 Bohr mag/cell

     iteration # 33     ecut=    48.00 Ry     beta= 0.50
     Davidson diagonalization with overlap
     ethr =  1.38E-08,  avg # of iterations =  6.8

     negative rho (up, down):  5.398E-03 4.865E-03

     total cpu time spent up to now is      249.6 secs

     total energy              =    -495.75414712 Ry
     estimated scf accuracy    <       0.00000312 Ry

     total magnetization       =     8.00 Bohr mag/cell
     absolute magnetization    =     8.86 Bohr mag/cell

     iteration # 34     ecut=    48.00 Ry     beta= 0.50
     Davidson diagonalization with overlap
     ethr =  1.11E-08,  avg # of iterations =  1.0

     negative rho (up, down):  5.398E-03 4.865E-03

     total cpu time spent up to now is      254.4 secs

     total energy              =    -495.75414713 Ry
     estimated scf accuracy    <       0.00000351 Ry

     total magnetization       =     8.00 Bohr mag/cell
     absolute magnetization    =     8.86 Bohr mag/cell

     iteration # 35     ecut=    48.00 Ry     beta= 0.50
     Davidson diagonalization with overlap
     ethr =  1.11E-08,  avg # of iterations =  1.0

     negative rho (up, down):  5.399E-03 4.865E-03

     total cpu time spent up to now is      259.2 secs

     total energy              =    -495.75414694 Ry
     estimated scf accuracy    <       0.00000423 Ry

     total magnetization       =     8.00 Bohr mag/cell
     absolute magnetization    =     8.86 Bohr mag/cell

     iteration # 36     ecut=    48.00 Ry     beta= 0.50
     Davidson diagonalization with overlap
     ethr =  1.11E-08,  avg # of iterations =  1.6

     negative rho (up, down):  5.399E-03 4.865E-03

     total cpu time spent up to now is      264.2 secs

     total energy              =    -495.75414639 Ry
     estimated scf accuracy    <       0.00000427 Ry

     total magnetization       =     8.00 Bohr mag/cell
     absolute magnetization    =     8.86 Bohr mag/cell

     iteration # 37     ecut=    48.00 Ry     beta= 0.50
     Davidson diagonalization with overlap
     ethr =  1.11E-08,  avg # of iterations =  5.7

     negative rho (up, down):  5.399E-03 4.865E-03

     total cpu time spent up to now is      269.6 secs

     total energy              =    -495.75414687 Ry
     estimated scf accuracy    <       0.00000067 Ry

     total magnetization       =     8.00 Bohr mag/cell
     absolute magnetization    =     8.86 Bohr mag/cell

     iteration # 38     ecut=    48.00 Ry     beta= 0.50
     Davidson diagonalization with overlap
     ethr =  2.38E-09,  avg # of iterations =  6.8

     negative rho (up, down):  5.399E-03 4.865E-03

     total cpu time spent up to now is      275.3 secs

     total energy              =    -495.75414698 Ry
     estimated scf accuracy    <       0.00000027 Ry

     total magnetization       =     8.00 Bohr mag/cell
     absolute magnetization    =     8.86 Bohr mag/cell

     iteration # 39     ecut=    48.00 Ry     beta= 0.50
     Davidson diagonalization with overlap
     ethr =  9.77E-10,  avg # of iterations =  1.2

     negative rho (up, down):  5.399E-03 4.865E-03

     total cpu time spent up to now is      280.1 secs

     total energy              =    -495.75414697 Ry
     estimated scf accuracy    <       0.00000031 Ry

     total magnetization       =     8.00 Bohr mag/cell
     absolute magnetization    =     8.86 Bohr mag/cell

     iteration # 40     ecut=    48.00 Ry     beta= 0.50
     Davidson diagonalization with overlap
     ethr =  9.77E-10,  avg # of iterations =  1.5

     negative rho (up, down):  5.399E-03 4.865E-03

     total cpu time spent up to now is      285.0 secs

     total energy              =    -495.75414694 Ry
     estimated scf accuracy    <       0.00000031 Ry

     total magnetization       =     8.00 Bohr mag/cell
     absolute magnetization    =     8.86 Bohr mag/cell

     iteration # 41     ecut=    48.00 Ry     beta= 0.50
     Davidson diagonalization with overlap
     ethr =  9.77E-10,  avg # of iterations =  6.0

     negative rho (up, down):  5.399E-03 4.865E-03

     total cpu time spent up to now is      290.5 secs

     total energy              =    -495.75414708 Ry
     estimated scf accuracy    <       0.00000026 Ry

     total magnetization       =     8.00 Bohr mag/cell
     absolute magnetization    =     8.86 Bohr mag/cell

     iteration # 42     ecut=    48.00 Ry     beta= 0.50
     Davidson diagonalization with overlap
     ethr =  9.14E-10,  avg # of iterations =  1.0

     negative rho (up, down):  5.399E-03 4.865E-03

     total cpu time spent up to now is      295.3 secs

     total energy              =    -495.75414704 Ry
     estimated scf accuracy    <       0.00000026 Ry

     total magnetization       =     8.00 Bohr mag/cell
     absolute magnetization    =     8.86 Bohr mag/cell

     iteration # 43     ecut=    48.00 Ry     beta= 0.50
     Davidson diagonalization with overlap
     ethr =  9.14E-10,  avg # of iterations =  1.0

     negative rho (up, down):  5.399E-03 4.865E-03

     total cpu time spent up to now is      300.1 secs

     total energy              =    -495.75414700 Ry
     estimated scf accuracy    <       0.00000029 Ry

     total magnetization       =     8.00 Bohr mag/cell
     absolute magnetization    =     8.86 Bohr mag/cell

     iteration # 44     ecut=    48.00 Ry     beta= 0.50
     Davidson diagonalization with overlap
     ethr =  9.14E-10,  avg # of iterations =  1.0

     negative rho (up, down):  5.399E-03 4.865E-03

     total cpu time spent up to now is      304.9 secs

     total energy              =    -495.75414697 Ry
     estimated scf accuracy    <       0.00000030 Ry

     total magnetization       =     8.00 Bohr mag/cell
     absolute magnetization    =     8.86 Bohr mag/cell

     iteration # 45     ecut=    48.00 Ry     beta= 0.50
     Davidson diagonalization with overlap
     ethr =  9.14E-10,  avg # of iterations =  5.9

     negative rho (up, down):  5.399E-03 4.865E-03
 
     Magnetic moment per site:
     atom:    1    charge:   12.3735    magn:    3.8976    constr:    0.0000
     atom:    2    charge:   12.3732    magn:    3.8971    constr:    0.0000

     total cpu time spent up to now is      310.3 secs

     End of self-consistent calculation

 ------ SPIN UP ------------


          k = 0.1667 0.2887 0.0000 ( 59267 PWs)   bands (ev):

   -76.3815 -76.3722 -47.9621 -47.8739 -47.6969 -47.6965 -47.6881 -47.6877
    -5.8404  -5.3536  -5.3533  -4.7905  -4.7599  -4.7599  -4.6382  -4.6378
    -4.5973  -4.5973

          k = 0.1667-0.4811 0.0000 ( 59291 PWs)   bands (ev):

   -76.3815 -76.3722 -47.9621 -47.8739 -47.6969 -47.6965 -47.6881 -47.6877
    -5.8398  -5.3535  -5.3533  -4.7889  -4.7600  -4.7596  -4.6381  -4.6378
    -4.5974  -4.5973

          k = 0.1667-0.0962 0.0000 ( 59226 PWs)   bands (ev):

   -76.3815 -76.3721 -47.9621 -47.8739 -47.6969 -47.6965 -47.6880 -47.6877
    -5.8409  -5.3536  -5.3533  -4.7921  -4.7601  -4.7598  -4.6383  -4.6378
    -4.5973  -4.5972

          k =-0.5000-0.8660 0.0000 ( 59292 PWs)   bands (ev):

   -76.3815 -76.3722 -47.9621 -47.8739 -47.6969 -47.6965 -47.6881 -47.6877
    -5.8359  -5.3533  -5.3529  -4.7889  -4.7598  -4.7598  -4.6391  -4.6386
    -4.5974  -4.5974

          k = 0.3333 0.0000 0.0000 ( 59267 PWs)   bands (ev):

   -76.3815 -76.3721 -47.9621 -47.8739 -47.6969 -47.6965 -47.6880 -47.6877
    -5.8378  -5.3534  -5.3531  -4.7905  -4.7600  -4.7598  -4.6388  -4.6383
    -4.5974  -4.5973

          k = 0.5000-0.0962 0.0000 ( 59291 PWs)   bands (ev):

   -76.3815 -76.3722 -47.9620 -47.8739 -47.6969 -47.6965 -47.6881 -47.6877
    -5.8359  -5.3533  -5.3530  -4.7889  -4.7598  -4.7598  -4.6391  -4.6386
    -4.5974  -4.5974

          k =-0.3333-0.3849 0.0000 ( 59291 PWs)   bands (ev):

   -76.3815 -76.3722 -47.9620 -47.8739 -47.6969 -47.6965 -47.6881 -47.6877
    -5.8372  -5.3533  -5.3531  -4.7889  -4.7599  -4.7598  -4.6387  -4.6383
    -4.5974  -4.5974

          k =-0.0000-0.1925 0.0000 ( 59226 PWs)   bands (ev):

   -76.3815 -76.3722 -47.9621 -47.8739 -47.6969 -47.6965 -47.6881 -47.6877
    -5.8422  -5.3537  -5.3534  -4.7920  -4.7600  -4.7599  -4.6380  -4.6375
    -4.5973  -4.5972

          k =-1.0000 0.0000 0.0000 ( 59292 PWs)   bands (ev):

   -76.3815 -76.3722 -47.9621 -47.8739 -47.6969 -47.6965 -47.6881 -47.6877
    -5.8411  -5.3536  -5.3534  -4.7890  -4.7600  -4.7596  -4.6378  -4.6375
    -4.5974  -4.5972

 ------ SPIN DOWN ----------


          k = 0.1667 0.2887 0.0000 ( 59267 PWs)   bands (ev):

   -72.3485 -72.3377 -44.3372 -44.2359 -43.5460 -43.5451 -43.5356 -43.5347
    -4.5879  -2.7693  -2.5146  -2.0789  -2.0785  -1.6464  -1.4091  -1.4051
    -1.2276  -1.2231

          k = 0.1667-0.4811 0.0000 ( 59291 PWs)   bands (ev):

   -72.3485 -72.3377 -44.3372 -44.2359 -43.5460 -43.5451 -43.5357 -43.5347
    -4.5843  -2.7771  -2.5085  -2.0788  -2.0785  -1.6465  -1.4093  -1.4016
    -1.2683  -1.2212

          k = 0.1667-0.0962 0.0000 ( 59226 PWs)   bands (ev):

   -72.3485 -72.3377 -44.3372 -44.2359 -43.5461 -43.5451 -43.5356 -43.5347
    -4.5914  -2.7614  -2.5198  -2.0792  -2.0786  -1.6460  -1.4123  -1.4013
    -1.2256  -1.0962

          k =-0.5000-0.8660 0.0000 ( 59292 PWs)   bands (ev):

   -72.3485 -72.3377 -44.3372 -44.2359 -43.5461 -43.5451 -43.5357 -43.5347
    -4.5672  -2.9047  -2.5119  -2.0773  -2.0771  -1.6868  -1.4058  -1.4037
    -1.2582  -1.2567

          k = 0.3333 0.0000 0.0000 ( 59267 PWs)   bands (ev):

   -72.3485 -72.3377 -44.3372 -44.2359 -43.5461 -43.5451 -43.5356 -43.5347
    -4.5767  -2.8575  -2.5156  -2.0783  -2.0776  -1.6772  -1.4082  -1.4007
    -1.2541  -1.2503

          k = 0.5000-0.0962 0.0000 ( 59291 PWs)   bands (ev):

   -72.3485 -72.3377 -44.3372 -44.2359 -43.5460 -43.5451 -43.5356 -43.5347
    -4.5673  -2.9046  -2.5114  -2.0776  -2.0771  -1.6868  -1.4043  -1.4034
    -1.2707  -1.2571

          k =-0.3333-0.3849 0.0000 ( 59291 PWs)   bands (ev):

   -72.3485 -72.3377 -44.3372 -44.2359 -43.5460 -43.5451 -43.5357 -43.5347
    -4.5730  -2.8647  -2.5108  -2.0778  -2.0775  -1.6776  -1.4052  -1.4045
    -1.2585  -1.2464

          k =-0.0000-0.1925 0.0000 ( 59226 PWs)   bands (ev):

   -72.3485 -72.3377 -44.3372 -44.2359 -43.5461 -43.5451 -43.5356 -43.5347
    -4.5967  -2.7114  -2.5198  -2.0796  -2.0790  -1.6146  -1.4134  -1.4040
    -1.2529  -1.2013

          k =-1.0000 0.0000 0.0000 ( 59292 PWs)   bands (ev):

   -72.3485 -72.3377 -44.3373 -44.2359 -43.5461 -43.5451 -43.5356 -43.5347
    -4.5898  -2.7284  -2.5074  -2.0793  -2.0789  -1.6144  -1.4114  -1.4003
    -1.2783  -1.2278

     the Fermi energy is    -2.5667 ev

!    total energy              =    -495.75414700 Ry

     total all-electron energy =     -4202.819504 Ry
     estimated scf accuracy    <       0.00000005 Ry
     smearing contrib. (-TS)   =      -0.00000000 Ry
     internal energy E=F+TS    =    -495.75414700 Ry

     The total energy is F=E-TS. E is the sum of the following terms:
     one-electron contribution =    -582.51905948 Ry
     hartree contribution      =     285.56638756 Ry
     xc contribution           =     -44.51201650 Ry
     ewald contribution        =      -5.91204333 Ry
     DFT-D3 Dispersion         =      -0.00169950 Ry
     one-center paw contrib.   =    -148.37571575 Ry

     total magnetization       =     8.00 Bohr mag/cell
     absolute magnetization    =     8.86 Bohr mag/cell

     convergence has been achieved in  45 iterations

     Writing output data file ./mytmp/2Cr0.14.save/
 
     init_run     :      5.04s CPU      6.68s WALL (       1 calls)
     electrons    :    246.42s CPU    303.54s WALL (       1 calls)

     Called by init_run:
     wfcinit      :      1.14s CPU      2.03s WALL (       1 calls)
     potinit      :      1.21s CPU      1.45s WALL (       1 calls)
     hinit0       :      0.87s CPU      1.02s WALL (       1 calls)

     Called by electrons:
     c_bands      :    121.83s CPU    147.57s WALL (      45 calls)
     sum_band     :     74.40s CPU     91.67s WALL (      45 calls)
     v_of_rho     :     15.43s CPU     18.59s WALL (      46 calls)
     newd         :     23.34s CPU     33.49s WALL (      46 calls)
     PAW_pot      :      6.80s CPU      7.44s WALL (      46 calls)
     mix_rho      :      3.78s CPU      4.09s WALL (      45 calls)

     Called by c_bands:
     init_us_2    :      1.41s CPU      1.49s WALL (    1638 calls)
     cegterg      :    116.55s CPU    142.06s WALL (     810 calls)

     Called by *egterg:
     cdiaghg      :     13.06s CPU     18.71s WALL (    3958 calls)
     h_psi        :     83.37s CPU    100.95s WALL (    3976 calls)
     s_psi        :      1.41s CPU      1.46s WALL (    3976 calls)
     g_psi        :      0.20s CPU      0.22s WALL (    3148 calls)

     Called by h_psi:
     h_psi:calbec :      5.54s CPU      6.29s WALL (    3976 calls)
     vloc_psi     :     75.42s CPU     92.14s WALL (    3976 calls)
     add_vuspsi   :      1.98s CPU      2.07s WALL (    3976 calls)

     General routines
     calbec       :      6.57s CPU      7.47s WALL (    4786 calls)
     fft          :     13.80s CPU     16.91s WALL (    1144 calls)
     ffts         :      0.37s CPU      0.40s WALL (     182 calls)
     fftw         :     80.97s CPU    100.16s WALL (   84070 calls)
     interpolate  :      1.34s CPU      1.45s WALL (      92 calls)
 
     Parallel routines
     fft_scatt_xy :     12.13s CPU     12.79s WALL (   85396 calls)
     fft_scatt_yz :     47.64s CPU     67.36s WALL (   85396 calls)
 
     PWSCF        :   4m12.04s CPU   5m11.18s WALL

 
   This run was terminated on:  18:56:14  30Mar2021            

=------------------------------------------------------------------------------=
   JOB DONE.
=------------------------------------------------------------------------------=
