
     Program PWSCF v.6.7MaX starts on 30Mar2021 at 21:48:53 

     This program is part of the open-source Quantum ESPRESSO suite
     for quantum simulation of materials; please cite
         "P. Giannozzi et al., J. Phys.:Condens. Matter 21 395502 (2009);
         "P. Giannozzi et al., J. Phys.:Condens. Matter 29 465901 (2017);
          URL http://www.quantum-espresso.org", 
     in publications or presentations arising from this work. More details at
     http://www.quantum-espresso.org/quote

     Parallel version (MPI), running on    48 processors

     MPI processes distributed on     1 nodes
     R & G space division:  proc/nbgrp/npool/nimage =      48
     Reading input from 2Cr0.26.scf.in

     Current dimensions of program PWSCF are:
     Max number of different atomic species (ntypx) = 10
     Max number of k-points (npk) =  40000
     Max angular momentum in pseudopotentials (lmaxx) =  3
     file Cr.pbe-spn-kjpaw_psl.1.0.0.UPF: wavefunction(s)  3S 3P 3D renormalized
     file Cr.pbe-spn-kjpaw_psl.1.0.0.UPF: wavefunction(s)  3S 3P 3D renormalized

     --------------------------------------------
     Parameters for DFT-D3 Dispersion Correction:
     --------------------------------------------
       Reference C6 values for interpolation: 

         atom   Coordination number   C6
         Cr1        0.000          1381.48
         Cr1        1.827           571.38
         Cr1       10.619           306.69
         Cr2        0.000          1381.48
         Cr2        1.827           571.38
         Cr2       10.619           306.69

       Values used:

         atom   Coordination number  R0_AB[au]  C6      C8
         Cr1        0.003            3.252   1381.48 127495.28
         Cr2        0.003            3.252   1381.48 127495.28

         Molecular C6 ( Ry / a.u.^6 ) =      5525.93


     Subspace diagonalization in iterative solution of the eigenvalue problem:
     one sub-group per band group will be used
     scalapack distributed-memory algorithm (size of sub-group:  6*  6 procs)

 
     Parallelization info
     --------------------
     sticks:   dense  smooth     PW     G-vecs:    dense   smooth      PW
     Min         235      98     26                36277     9874    1408
     Max         236      99     27                36282     9883    1425
     Sum       11311    4741   1285              1741401   474235   68095
 


     bravais-lattice index     =            4
     lattice parameter (alat)  =      18.9275  a.u.
     unit-cell volume          =   10553.3021 (a.u.)^3
     number of atoms/cell      =            2
     number of atomic types    =            2
     number of electrons       =        28.00
     number of Kohn-Sham states=           18
     kinetic-energy cutoff     =      48.0000  Ry
     charge density cutoff     =     457.0000  Ry
     scf convergence threshold =      1.0E-07
     mixing beta               =       0.5000
     number of iterations used =            8  plain     mixing
     Exchange-correlation= SLA  PW   PBX  PBC
                           (   1   4   3   4   0   0   0)

     celldm(1)=  18.927497  celldm(2)=   0.000000  celldm(3)=   1.797125
     celldm(4)=   0.000000  celldm(5)=   0.000000  celldm(6)=   0.000000

     crystal axes: (cart. coord. in units of alat)
               a(1) = (   1.000000   0.000000   0.000000 )  
               a(2) = (  -0.500000   0.866025   0.000000 )  
               a(3) = (   0.000000   0.000000   1.797125 )  

     reciprocal axes: (cart. coord. in units 2 pi/alat)
               b(1) = (  1.000000  0.577350  0.000000 )  
               b(2) = (  0.000000  1.154701  0.000000 )  
               b(3) = (  0.000000  0.000000  0.556444 )  


     PseudoPot. # 1 for Cr read from file:
     /home/sf05/q-e-qe-6.7MaX-Release/pseudo/Cr.pbe-spn-kjpaw_psl.1.0.0.UPF
     MD5 check sum: 198f1a2427a48552563eee314eba32ba
     Pseudo is Projector augmented-wave + core cor, Zval = 14.0
     Generated using &quot;atomic&quot; code by A. Dal Corso  v.6.3
     Shape of augmentation charge: PSQ
     Using radial grid of 1183 points,  6 beta functions with: 
                l(1) =   0
                l(2) =   0
                l(3) =   1
                l(4) =   1
                l(5) =   2
                l(6) =   2
     Q(r) pseudized with 0 coefficients 


     PseudoPot. # 2 for Cr read from file:
     /home/sf05/q-e-qe-6.7MaX-Release/pseudo/Cr.pbe-spn-kjpaw_psl.1.0.0.UPF
     MD5 check sum: 198f1a2427a48552563eee314eba32ba
     Pseudo is Projector augmented-wave + core cor, Zval = 14.0
     Generated using &quot;atomic&quot; code by A. Dal Corso  v.6.3
     Shape of augmentation charge: PSQ
     Using radial grid of 1183 points,  6 beta functions with: 
                l(1) =   0
                l(2) =   0
                l(3) =   1
                l(4) =   1
                l(5) =   2
                l(6) =   2
     Q(r) pseudized with 0 coefficients 


     atomic species   valence    mass     pseudopotential
        Cr1           14.00    51.99610     Cr( 1.00)
        Cr2           14.00    51.99610     Cr( 1.00)

     Starting magnetic structure 
     atomic species   magnetization
        Cr1          1.000
        Cr2          1.000

      4 Sym. Ops. (no inversion) found ( 2 have fractional translation)



   Cartesian axes

     site n.     atom                  positions (alat units)
         1           Cr1 tau(   1) = (   0.5100000   0.4330127   0.8985623  )
         2           Cr2 tau(   2) = (  -0.0100000   0.4330127   0.8985623  )

     number of k points=     9  Gaussian smearing, width (Ry)=  0.0000
                       cart. coord. in units 2pi/alat
        k(    1) = (   0.1666667   0.2886751   0.0000000), wk =   0.1481481
        k(    2) = (   0.1666667  -0.4811252   0.0000000), wk =   0.1481481
        k(    3) = (   0.1666667  -0.0962250   0.0000000), wk =   0.1481481
        k(    4) = (  -0.5000000  -0.8660254   0.0000000), wk =   0.0740741
        k(    5) = (   0.3333333   0.0000000   0.0000000), wk =   0.0740741
        k(    6) = (   0.5000000  -0.0962250   0.0000000), wk =   0.1481481
        k(    7) = (  -0.3333333  -0.3849002   0.0000000), wk =   0.1481481
        k(    8) = (  -0.0000000  -0.1924501   0.0000000), wk =   0.0740741
        k(    9) = (  -1.0000000   0.0000000   0.0000000), wk =   0.0370370

     Dense  grid:  1741401 G-vectors     FFT dimensions: ( 144, 135, 240)

     Smooth grid:   474235 G-vectors     FFT dimensions: (  90,  90, 160)

     Estimated max dynamical RAM per process >     152.07 MB

     Estimated total dynamical RAM >       7.13 GB
     Generating pointlists ...
     new r_m :   0.1980 (alat units)  3.7476 (a.u.) for type    1
     new r_m :   0.1980 (alat units)  3.7476 (a.u.) for type    2

     Initial potential from superposition of free atoms

     starting charge   27.99845, renormalised to   28.00000

     negative rho (up, down):  1.051E-02 4.519E-17
     Starting wfcs are   20 randomized atomic wfcs
     Checking if some PAW data can be deallocated... 

     total cpu time spent up to now is        4.7 secs

     Self-consistent Calculation

     iteration #  1     ecut=    48.00 Ry     beta= 0.50
     Davidson diagonalization with overlap
     ethr =  1.00E-02,  avg # of iterations =  7.9

     negative rho (up, down):  7.748E-03 0.000E+00

     total cpu time spent up to now is       12.6 secs

     total energy              =    -494.14657790 Ry
     estimated scf accuracy    <       4.71776578 Ry

     total magnetization       =     8.00 Bohr mag/cell
     absolute magnetization    =    10.76 Bohr mag/cell

     iteration #  2     ecut=    48.00 Ry     beta= 0.50
     Davidson diagonalization with overlap
     ethr =  1.00E-02,  avg # of iterations =  2.0

     negative rho (up, down):  1.431E-02 7.458E-04

     total cpu time spent up to now is       17.9 secs

     total energy              =    -495.44833485 Ry
     estimated scf accuracy    <       1.28828932 Ry

     total magnetization       =     8.00 Bohr mag/cell
     absolute magnetization    =     9.77 Bohr mag/cell

     iteration #  3     ecut=    48.00 Ry     beta= 0.50
     Davidson diagonalization with overlap
     ethr =  4.60E-03,  avg # of iterations =  1.0

     negative rho (up, down):  3.790E-02 2.121E-02

     total cpu time spent up to now is       22.7 secs

     total energy              =    -495.62802664 Ry
     estimated scf accuracy    <       0.21925110 Ry

     total magnetization       =     8.00 Bohr mag/cell
     absolute magnetization    =     9.45 Bohr mag/cell

     iteration #  4     ecut=    48.00 Ry     beta= 0.50
     Davidson diagonalization with overlap
     ethr =  7.83E-04,  avg # of iterations =  5.1

     negative rho (up, down):  1.855E-02 1.042E-02

     total cpu time spent up to now is       28.7 secs

     total energy              =    -495.64288590 Ry
     estimated scf accuracy    <       0.01023254 Ry

     total magnetization       =     8.00 Bohr mag/cell
     absolute magnetization    =     9.41 Bohr mag/cell

     iteration #  5     ecut=    48.00 Ry     beta= 0.50
     Davidson diagonalization with overlap
     c_bands:  1 eigenvalues not converged
     c_bands:  1 eigenvalues not converged
     c_bands:  1 eigenvalues not converged
     c_bands:  1 eigenvalues not converged
     c_bands:  1 eigenvalues not converged
     ethr =  3.65E-05,  avg # of iterations = 16.3

     negative rho (up, down):  1.246E-02 4.953E-03

     total cpu time spent up to now is       38.5 secs

     total energy              =    -495.71737429 Ry
     estimated scf accuracy    <       0.43465124 Ry

     total magnetization       =     8.00 Bohr mag/cell
     absolute magnetization    =     8.24 Bohr mag/cell

     iteration #  6     ecut=    48.00 Ry     beta= 0.50
     Davidson diagonalization with overlap
     ethr =  3.65E-05,  avg # of iterations =  2.7

     negative rho (up, down):  1.335E-02 4.122E-03

     total cpu time spent up to now is       43.7 secs

     total energy              =    -495.74138615 Ry
     estimated scf accuracy    <       0.41058180 Ry

     total magnetization       =     8.00 Bohr mag/cell
     absolute magnetization    =     8.23 Bohr mag/cell

     iteration #  7     ecut=    48.00 Ry     beta= 0.50
     Davidson diagonalization with overlap
     ethr =  3.65E-05,  avg # of iterations =  1.6

     negative rho (up, down):  9.030E-03 4.451E-03

     total cpu time spent up to now is       48.7 secs

     total energy              =    -495.66185713 Ry
     estimated scf accuracy    <       0.48518693 Ry

     total magnetization       =     8.00 Bohr mag/cell
     absolute magnetization    =     8.22 Bohr mag/cell

     iteration #  8     ecut=    48.00 Ry     beta= 0.50
     Davidson diagonalization with overlap
     c_bands:  2 eigenvalues not converged
     c_bands:  3 eigenvalues not converged
     c_bands:  3 eigenvalues not converged
     c_bands:  1 eigenvalues not converged
     c_bands:  1 eigenvalues not converged
     c_bands:  1 eigenvalues not converged
     c_bands:  1 eigenvalues not converged
     ethr =  3.65E-05,  avg # of iterations = 16.2

     negative rho (up, down):  9.942E-03 4.716E-03

     total cpu time spent up to now is       58.6 secs

     total energy              =    -495.67581089 Ry
     estimated scf accuracy    <       0.33918877 Ry

     total magnetization       =     8.00 Bohr mag/cell
     absolute magnetization    =     8.45 Bohr mag/cell

     iteration #  9     ecut=    48.00 Ry     beta= 0.50
     Davidson diagonalization with overlap
     ethr =  3.65E-05,  avg # of iterations =  5.2

     negative rho (up, down):  9.749E-03 4.939E-03

     total cpu time spent up to now is       64.4 secs

     total energy              =    -495.67814653 Ry
     estimated scf accuracy    <       0.24513822 Ry

     total magnetization       =     8.00 Bohr mag/cell
     absolute magnetization    =     8.51 Bohr mag/cell

     iteration # 10     ecut=    48.00 Ry     beta= 0.50
     Davidson diagonalization with overlap
     ethr =  3.65E-05,  avg # of iterations =  1.1

     negative rho (up, down):  7.717E-03 4.782E-03

     total cpu time spent up to now is       69.2 secs

     total energy              =    -495.65880668 Ry
     estimated scf accuracy    <       0.24376134 Ry

     total magnetization       =     8.00 Bohr mag/cell
     absolute magnetization    =     8.51 Bohr mag/cell

     iteration # 11     ecut=    48.00 Ry     beta= 0.50
     Davidson diagonalization with overlap
     c_bands:  2 eigenvalues not converged
     c_bands:  1 eigenvalues not converged
     ethr =  3.65E-05,  avg # of iterations = 13.1

     negative rho (up, down):  5.958E-03 4.949E-03

     total cpu time spent up to now is       78.0 secs

     total energy              =    -495.68607387 Ry
     estimated scf accuracy    <       0.12459210 Ry

     total magnetization       =     8.00 Bohr mag/cell
     absolute magnetization    =     8.81 Bohr mag/cell

     iteration # 12     ecut=    48.00 Ry     beta= 0.50
     Davidson diagonalization with overlap
     ethr =  3.65E-05,  avg # of iterations =  3.3

     negative rho (up, down):  5.698E-03 5.081E-03

     total cpu time spent up to now is       83.3 secs

     total energy              =    -495.69143992 Ry
     estimated scf accuracy    <       0.12006768 Ry

     total magnetization       =     8.00 Bohr mag/cell
     absolute magnetization    =     8.94 Bohr mag/cell

     iteration # 13     ecut=    48.00 Ry     beta= 0.50
     Davidson diagonalization with overlap
     ethr =  3.65E-05,  avg # of iterations =  1.0

     negative rho (up, down):  8.194E-03 5.829E-03

     total cpu time spent up to now is       88.1 secs

     total energy              =    -495.70366502 Ry
     estimated scf accuracy    <       0.12131584 Ry

     total magnetization       =     8.00 Bohr mag/cell
     absolute magnetization    =     8.94 Bohr mag/cell

     iteration # 14     ecut=    48.00 Ry     beta= 0.50
     Davidson diagonalization with overlap
     ethr =  3.65E-05,  avg # of iterations =  9.9

     negative rho (up, down):  6.112E-03 4.840E-03

     total cpu time spent up to now is       95.0 secs

     total energy              =    -495.66365985 Ry
     estimated scf accuracy    <       0.25516386 Ry

     total magnetization       =     8.00 Bohr mag/cell
     absolute magnetization    =     9.30 Bohr mag/cell

     iteration # 15     ecut=    48.00 Ry     beta= 0.50
     Davidson diagonalization with overlap
     ethr =  3.65E-05,  avg # of iterations =  9.3

     negative rho (up, down):  7.046E-03 4.730E-03

     total cpu time spent up to now is      103.1 secs

     total energy              =    -495.67905430 Ry
     estimated scf accuracy    <       0.22832488 Ry

     total magnetization       =     8.00 Bohr mag/cell
     absolute magnetization    =     8.77 Bohr mag/cell

     iteration # 16     ecut=    48.00 Ry     beta= 0.50
     Davidson diagonalization with overlap
     ethr =  3.65E-05,  avg # of iterations =  1.0

     negative rho (up, down):  1.684E-02 5.644E-03

     total cpu time spent up to now is      107.8 secs

     total energy              =    -495.69428637 Ry
     estimated scf accuracy    <       0.22474213 Ry

     total magnetization       =     8.00 Bohr mag/cell
     absolute magnetization    =     8.76 Bohr mag/cell

     iteration # 17     ecut=    48.00 Ry     beta= 0.50
     Davidson diagonalization with overlap
     c_bands:  3 eigenvalues not converged
     c_bands:  1 eigenvalues not converged
     c_bands:  1 eigenvalues not converged
     c_bands:  1 eigenvalues not converged
     c_bands:  1 eigenvalues not converged
     c_bands:  1 eigenvalues not converged
     ethr =  3.65E-05,  avg # of iterations = 17.3

     negative rho (up, down):  1.406E-02 5.397E-03

     total cpu time spent up to now is      118.0 secs

     total energy              =    -495.73624172 Ry
     estimated scf accuracy    <       1.63681118 Ry

     total magnetization       =     8.00 Bohr mag/cell
     absolute magnetization    =     8.12 Bohr mag/cell

     iteration # 18     ecut=    48.00 Ry     beta= 0.50
     Davidson diagonalization with overlap
     c_bands:  1 eigenvalues not converged
     ethr =  3.65E-05,  avg # of iterations =  3.7

     negative rho (up, down):  1.429E-02 5.205E-03

     total cpu time spent up to now is      123.2 secs

     total energy              =    -495.70618250 Ry
     estimated scf accuracy    <       1.60567356 Ry

     total magnetization       =     8.00 Bohr mag/cell
     absolute magnetization    =     8.12 Bohr mag/cell

     iteration # 19     ecut=    48.00 Ry     beta= 0.50
     Davidson diagonalization with overlap
     ethr =  3.65E-05,  avg # of iterations =  3.7

     negative rho (up, down):  1.639E-02 5.589E-03

     total cpu time spent up to now is      128.5 secs

     total energy              =    -495.69576281 Ry
     estimated scf accuracy    <       0.99261924 Ry

     total magnetization       =     8.00 Bohr mag/cell
     absolute magnetization    =     8.19 Bohr mag/cell

     iteration # 20     ecut=    48.00 Ry     beta= 0.50
     Davidson diagonalization with overlap
     c_bands:  1 eigenvalues not converged
     ethr =  3.65E-05,  avg # of iterations =  7.3

     negative rho (up, down):  1.170E-02 5.096E-03

     total cpu time spent up to now is      134.6 secs

     total energy              =    -495.65630733 Ry
     estimated scf accuracy    <       0.81536765 Ry

     total magnetization       =     8.00 Bohr mag/cell
     absolute magnetization    =     8.18 Bohr mag/cell

     iteration # 21     ecut=    48.00 Ry     beta= 0.50
     Davidson diagonalization with overlap
     ethr =  3.65E-05,  avg # of iterations = 11.1

     negative rho (up, down):  1.095E-02 4.824E-03

     total cpu time spent up to now is      141.9 secs

     total energy              =    -495.66114239 Ry
     estimated scf accuracy    <       0.47701490 Ry

     total magnetization       =     8.00 Bohr mag/cell
     absolute magnetization    =     8.34 Bohr mag/cell

     iteration # 22     ecut=    48.00 Ry     beta= 0.50
     Davidson diagonalization with overlap
     ethr =  3.65E-05,  avg # of iterations =  1.1

     negative rho (up, down):  1.304E-02 4.524E-03

     total cpu time spent up to now is      146.7 secs

     total energy              =    -495.66099407 Ry
     estimated scf accuracy    <       0.45524358 Ry

     total magnetization       =     8.00 Bohr mag/cell
     absolute magnetization    =     8.35 Bohr mag/cell

     iteration # 23     ecut=    48.00 Ry     beta= 0.50
     Davidson diagonalization with overlap
     ethr =  3.65E-05,  avg # of iterations =  1.7

     negative rho (up, down):  1.029E-02 4.646E-03

     total cpu time spent up to now is      151.6 secs

     total energy              =    -495.67144999 Ry
     estimated scf accuracy    <       0.44110545 Ry

     total magnetization       =     8.00 Bohr mag/cell
     absolute magnetization    =     8.35 Bohr mag/cell

     iteration # 24     ecut=    48.00 Ry     beta= 0.50
     Davidson diagonalization with overlap
     ethr =  3.65E-05,  avg # of iterations =  1.4

     negative rho (up, down):  1.152E-02 4.498E-03

     total cpu time spent up to now is      156.5 secs

     total energy              =    -495.65342195 Ry
     estimated scf accuracy    <       0.47058351 Ry

     total magnetization       =     8.00 Bohr mag/cell
     absolute magnetization    =     8.35 Bohr mag/cell

     iteration # 25     ecut=    48.00 Ry     beta= 0.50
     Davidson diagonalization with overlap
     ethr =  3.65E-05,  avg # of iterations =  3.3

     negative rho (up, down):  2.193E-02 4.989E-03

     total cpu time spent up to now is      161.8 secs

     total energy              =    -495.62483568 Ry
     estimated scf accuracy    <       0.22589855 Ry

     total magnetization       =     8.00 Bohr mag/cell
     absolute magnetization    =     8.45 Bohr mag/cell

     iteration # 26     ecut=    48.00 Ry     beta= 0.50
     Davidson diagonalization with overlap
     c_bands:  2 eigenvalues not converged
     c_bands:  2 eigenvalues not converged
     c_bands:  1 eigenvalues not converged
     c_bands:  1 eigenvalues not converged
     c_bands:  2 eigenvalues not converged
     c_bands:  3 eigenvalues not converged
     c_bands:  2 eigenvalues not converged
     ethr =  3.65E-05,  avg # of iterations = 13.6

     negative rho (up, down):  9.814E-03 5.100E-03

     total cpu time spent up to now is      170.8 secs

     total energy              =    -495.64078381 Ry
     estimated scf accuracy    <       0.09634117 Ry

     total magnetization       =     8.00 Bohr mag/cell
     absolute magnetization    =     8.56 Bohr mag/cell

     iteration # 27     ecut=    48.00 Ry     beta= 0.50
     Davidson diagonalization with overlap
     ethr =  3.65E-05,  avg # of iterations =  8.3

     negative rho (up, down):  8.068E-03 4.871E-03

     total cpu time spent up to now is      177.2 secs

     total energy              =    -495.63468135 Ry
     estimated scf accuracy    <       0.10696254 Ry

     total magnetization       =     8.00 Bohr mag/cell
     absolute magnetization    =     8.56 Bohr mag/cell

     iteration # 28     ecut=    48.00 Ry     beta= 0.50
     Davidson diagonalization with overlap
     ethr =  3.65E-05,  avg # of iterations =  4.7

     negative rho (up, down):  7.754E-03 5.180E-03

     total cpu time spent up to now is      182.7 secs

     total energy              =    -495.64248784 Ry
     estimated scf accuracy    <       0.07577509 Ry

     total magnetization       =     8.00 Bohr mag/cell
     absolute magnetization    =     8.34 Bohr mag/cell

     iteration # 29     ecut=    48.00 Ry     beta= 0.50
     Davidson diagonalization with overlap
     ethr =  3.65E-05,  avg # of iterations =  1.0

     negative rho (up, down):  9.077E-03 6.175E-03

     total cpu time spent up to now is      187.5 secs

     total energy              =    -495.62559033 Ry
     estimated scf accuracy    <       0.08027575 Ry

     total magnetization       =     8.00 Bohr mag/cell
     absolute magnetization    =     8.33 Bohr mag/cell

     iteration # 30     ecut=    48.00 Ry     beta= 0.50
     Davidson diagonalization with overlap
     ethr =  3.65E-05,  avg # of iterations =  1.6

     negative rho (up, down):  1.166E-02 6.056E-03

     total cpu time spent up to now is      192.4 secs

     total energy              =    -495.61630654 Ry
     estimated scf accuracy    <       0.05318390 Ry

     total magnetization       =     8.00 Bohr mag/cell
     absolute magnetization    =     8.55 Bohr mag/cell

     iteration # 31     ecut=    48.00 Ry     beta= 0.50
     Davidson diagonalization with overlap
     ethr =  3.65E-05,  avg # of iterations =  5.7

     negative rho (up, down):  1.198E-02 6.530E-03

     total cpu time spent up to now is      198.4 secs

     total energy              =    -495.65945677 Ry
     estimated scf accuracy    <       0.30071474 Ry

     total magnetization       =     8.00 Bohr mag/cell
     absolute magnetization    =     8.31 Bohr mag/cell

     iteration # 32     ecut=    48.00 Ry     beta= 0.50
     Davidson diagonalization with overlap
     ethr =  3.65E-05,  avg # of iterations =  1.3

     negative rho (up, down):  1.406E-02 8.834E-03

     total cpu time spent up to now is      203.3 secs

     total energy              =    -495.65601319 Ry
     estimated scf accuracy    <       0.27134322 Ry

     total magnetization       =     8.00 Bohr mag/cell
     absolute magnetization    =     8.32 Bohr mag/cell

     iteration # 33     ecut=    48.00 Ry     beta= 0.50
     Davidson diagonalization with overlap
     ethr =  3.65E-05,  avg # of iterations =  3.8

     negative rho (up, down):  6.628E-03 4.810E-03

     total cpu time spent up to now is      208.9 secs

     total energy              =    -495.57341352 Ry
     estimated scf accuracy    <       0.46440540 Ry

     total magnetization       =     8.00 Bohr mag/cell
     absolute magnetization    =     8.27 Bohr mag/cell

     iteration # 34     ecut=    48.00 Ry     beta= 0.50
     Davidson diagonalization with overlap
     ethr =  3.65E-05,  avg # of iterations = 12.7

     negative rho (up, down):  6.339E-03 5.154E-03

     total cpu time spent up to now is      217.6 secs

     total energy              =    -495.66000861 Ry
     estimated scf accuracy    <       0.55424266 Ry

     total magnetization       =     8.00 Bohr mag/cell
     absolute magnetization    =     8.25 Bohr mag/cell

     iteration # 35     ecut=    48.00 Ry     beta= 0.50
     Davidson diagonalization with overlap
     ethr =  3.65E-05,  avg # of iterations =  3.5

     negative rho (up, down):  1.101E-02 5.040E-03

     total cpu time spent up to now is      222.8 secs

     total energy              =    -495.62391546 Ry
     estimated scf accuracy    <       0.39424503 Ry

     total magnetization       =     8.00 Bohr mag/cell
     absolute magnetization    =     8.28 Bohr mag/cell

     iteration # 36     ecut=    48.00 Ry     beta= 0.50
     Davidson diagonalization with overlap
     ethr =  3.65E-05,  avg # of iterations =  7.4

     negative rho (up, down):  5.909E-03 4.740E-03

     total cpu time spent up to now is      229.2 secs

     total energy              =    -495.64347457 Ry
     estimated scf accuracy    <       0.07981563 Ry

     total magnetization       =     8.00 Bohr mag/cell
     absolute magnetization    =     8.22 Bohr mag/cell

     iteration # 37     ecut=    48.00 Ry     beta= 0.50
     Davidson diagonalization with overlap
     ethr =  3.65E-05,  avg # of iterations =  4.7

     negative rho (up, down):  1.039E-02 5.230E-03

     total cpu time spent up to now is      235.0 secs

     total energy              =    -495.64553755 Ry
     estimated scf accuracy    <       0.20061612 Ry

     total magnetization       =     8.00 Bohr mag/cell
     absolute magnetization    =     8.20 Bohr mag/cell

     iteration # 38     ecut=    48.00 Ry     beta= 0.50
     Davidson diagonalization with overlap
     ethr =  3.65E-05,  avg # of iterations =  2.4

     negative rho (up, down):  1.065E-02 4.881E-03

     total cpu time spent up to now is      240.2 secs

     total energy              =    -495.65294817 Ry
     estimated scf accuracy    <       0.03630616 Ry

     total magnetization       =     8.00 Bohr mag/cell
     absolute magnetization    =     8.28 Bohr mag/cell

     iteration # 39     ecut=    48.00 Ry     beta= 0.50
     Davidson diagonalization with overlap
     ethr =  3.65E-05,  avg # of iterations =  1.0

     negative rho (up, down):  1.504E-02 5.629E-03

     total cpu time spent up to now is      245.0 secs

     total energy              =    -495.64874875 Ry
     estimated scf accuracy    <       0.03125120 Ry

     total magnetization       =     8.00 Bohr mag/cell
     absolute magnetization    =     8.28 Bohr mag/cell

     iteration # 40     ecut=    48.00 Ry     beta= 0.50
     Davidson diagonalization with overlap
     ethr =  3.65E-05,  avg # of iterations =  6.4

     negative rho (up, down):  8.744E-03 5.634E-03

     total cpu time spent up to now is      251.2 secs

     total energy              =    -495.65870343 Ry
     estimated scf accuracy    <       0.22639815 Ry

     total magnetization       =     8.00 Bohr mag/cell
     absolute magnetization    =     8.49 Bohr mag/cell

     iteration # 41     ecut=    48.00 Ry     beta= 0.50
     Davidson diagonalization with overlap
     ethr =  3.65E-05,  avg # of iterations =  2.2

     negative rho (up, down):  6.221E-03 5.633E-03

     total cpu time spent up to now is      256.4 secs

     total energy              =    -495.64969734 Ry
     estimated scf accuracy    <       0.18199144 Ry

     total magnetization       =     8.00 Bohr mag/cell
     absolute magnetization    =     8.41 Bohr mag/cell

     iteration # 42     ecut=    48.00 Ry     beta= 0.50
     Davidson diagonalization with overlap
     ethr =  3.65E-05,  avg # of iterations =  4.3

     negative rho (up, down):  5.989E-03 5.662E-03

     total cpu time spent up to now is      261.9 secs

     total energy              =    -495.65227473 Ry
     estimated scf accuracy    <       0.01766600 Ry

     total magnetization       =     8.00 Bohr mag/cell
     absolute magnetization    =     8.40 Bohr mag/cell

     iteration # 43     ecut=    48.00 Ry     beta= 0.50
     Davidson diagonalization with overlap
     ethr =  3.65E-05,  avg # of iterations =  2.2

     negative rho (up, down):  6.429E-03 5.790E-03

     total cpu time spent up to now is      266.9 secs

     total energy              =    -495.65592696 Ry
     estimated scf accuracy    <       0.03501861 Ry

     total magnetization       =     8.00 Bohr mag/cell
     absolute magnetization    =     8.36 Bohr mag/cell

     iteration # 44     ecut=    48.00 Ry     beta= 0.50
     Davidson diagonalization with overlap
     ethr =  3.65E-05,  avg # of iterations =  5.3

     negative rho (up, down):  5.295E-03 5.822E-03

     total cpu time spent up to now is      272.6 secs

     total energy              =    -495.65577713 Ry
     estimated scf accuracy    <       0.26636280 Ry

     total magnetization       =     8.00 Bohr mag/cell
     absolute magnetization    =     8.45 Bohr mag/cell

     iteration # 45     ecut=    48.00 Ry     beta= 0.50
     Davidson diagonalization with overlap
     ethr =  3.65E-05,  avg # of iterations =  2.8

     negative rho (up, down):  5.362E-03 5.560E-03

     total cpu time spent up to now is      277.7 secs

     total energy              =    -495.64966417 Ry
     estimated scf accuracy    <       0.18830091 Ry

     total magnetization       =     8.00 Bohr mag/cell
     absolute magnetization    =     8.47 Bohr mag/cell

     iteration # 46     ecut=    48.00 Ry     beta= 0.50
     Davidson diagonalization with overlap
     ethr =  3.65E-05,  avg # of iterations =  4.2

     negative rho (up, down):  6.335E-03 4.870E-03

     total cpu time spent up to now is      283.3 secs

     total energy              =    -495.65422101 Ry
     estimated scf accuracy    <       0.01057514 Ry

     total magnetization       =     8.00 Bohr mag/cell
     absolute magnetization    =     8.48 Bohr mag/cell

     iteration # 47     ecut=    48.00 Ry     beta= 0.50
     Davidson diagonalization with overlap
     ethr =  3.65E-05,  avg # of iterations =  6.7

     negative rho (up, down):  5.207E-03 4.787E-03

     total cpu time spent up to now is      289.6 secs

     total energy              =    -495.66022269 Ry
     estimated scf accuracy    <       0.00628431 Ry

     total magnetization       =     8.00 Bohr mag/cell
     absolute magnetization    =     8.57 Bohr mag/cell

     iteration # 48     ecut=    48.00 Ry     beta= 0.50
     Davidson diagonalization with overlap
     ethr =  2.24E-05,  avg # of iterations =  1.2

     negative rho (up, down):  4.574E-03 4.702E-03

     total cpu time spent up to now is      294.5 secs

     total energy              =    -495.65961909 Ry
     estimated scf accuracy    <       0.00521109 Ry

     total magnetization       =     8.00 Bohr mag/cell
     absolute magnetization    =     8.57 Bohr mag/cell

     iteration # 49     ecut=    48.00 Ry     beta= 0.50
     Davidson diagonalization with overlap
     ethr =  1.86E-05,  avg # of iterations =  3.2

     negative rho (up, down):  4.524E-03 4.695E-03

     total cpu time spent up to now is      299.7 secs

     total energy              =    -495.66038729 Ry
     estimated scf accuracy    <       0.00496022 Ry

     total magnetization       =     8.00 Bohr mag/cell
     absolute magnetization    =     8.56 Bohr mag/cell

     iteration # 50     ecut=    48.00 Ry     beta= 0.50
     Davidson diagonalization with overlap
     ethr =  1.77E-05,  avg # of iterations =  2.5

     negative rho (up, down):  5.996E-03 4.726E-03

     total cpu time spent up to now is      304.9 secs

     total energy              =    -495.65969810 Ry
     estimated scf accuracy    <       0.01089571 Ry

     total magnetization       =     8.00 Bohr mag/cell
     absolute magnetization    =     8.62 Bohr mag/cell

     iteration # 51     ecut=    48.00 Ry     beta= 0.50
     Davidson diagonalization with overlap
     ethr =  1.77E-05,  avg # of iterations =  1.2

     negative rho (up, down):  6.088E-03 4.701E-03

     total cpu time spent up to now is      309.7 secs

     total energy              =    -495.66039309 Ry
     estimated scf accuracy    <       0.00996269 Ry

     total magnetization       =     8.00 Bohr mag/cell
     absolute magnetization    =     8.62 Bohr mag/cell

     iteration # 52     ecut=    48.00 Ry     beta= 0.50
     Davidson diagonalization with overlap
     ethr =  1.77E-05,  avg # of iterations =  1.0

     negative rho (up, down):  5.697E-03 4.727E-03

     total cpu time spent up to now is      314.5 secs

     total energy              =    -495.66099115 Ry
     estimated scf accuracy    <       0.01049152 Ry

     total magnetization       =     8.00 Bohr mag/cell
     absolute magnetization    =     8.81 Bohr mag/cell

     iteration # 53     ecut=    48.00 Ry     beta= 0.50
     Davidson diagonalization with overlap
     ethr =  1.77E-05,  avg # of iterations =  1.0

     negative rho (up, down):  6.579E-03 4.695E-03

     total cpu time spent up to now is      319.3 secs

     total energy              =    -495.66147361 Ry
     estimated scf accuracy    <       0.01188753 Ry

     total magnetization       =     8.00 Bohr mag/cell
     absolute magnetization    =     8.82 Bohr mag/cell

     iteration # 54     ecut=    48.00 Ry     beta= 0.50
     Davidson diagonalization with overlap
     ethr =  1.77E-05,  avg # of iterations =  1.9

     negative rho (up, down):  8.204E-03 4.797E-03

     total cpu time spent up to now is      324.3 secs

     total energy              =    -495.66001524 Ry
     estimated scf accuracy    <       0.00949723 Ry

     total magnetization       =     8.00 Bohr mag/cell
     absolute magnetization    =     8.81 Bohr mag/cell

     iteration # 55     ecut=    48.00 Ry     beta= 0.50
     Davidson diagonalization with overlap
     ethr =  1.77E-05,  avg # of iterations =  1.1

     negative rho (up, down):  8.602E-03 4.718E-03

     total cpu time spent up to now is      329.1 secs

     total energy              =    -495.66081278 Ry
     estimated scf accuracy    <       0.01319230 Ry

     total magnetization       =     8.00 Bohr mag/cell
     absolute magnetization    =     8.63 Bohr mag/cell

     iteration # 56     ecut=    48.00 Ry     beta= 0.50
     Davidson diagonalization with overlap
     ethr =  1.77E-05,  avg # of iterations =  1.0

     negative rho (up, down):  8.855E-03 4.719E-03

     total cpu time spent up to now is      333.9 secs

     total energy              =    -495.66080895 Ry
     estimated scf accuracy    <       0.01367877 Ry

     total magnetization       =     8.00 Bohr mag/cell
     absolute magnetization    =     8.62 Bohr mag/cell

     iteration # 57     ecut=    48.00 Ry     beta= 0.50
     Davidson diagonalization with overlap
     ethr =  1.77E-05,  avg # of iterations =  1.0

     negative rho (up, down):  9.042E-03 4.729E-03

     total cpu time spent up to now is      338.7 secs

     total energy              =    -495.66083467 Ry
     estimated scf accuracy    <       0.01437612 Ry

     total magnetization       =     8.00 Bohr mag/cell
     absolute magnetization    =     8.62 Bohr mag/cell

     iteration # 58     ecut=    48.00 Ry     beta= 0.50
     Davidson diagonalization with overlap
     ethr =  1.77E-05,  avg # of iterations =  1.0

     negative rho (up, down):  4.630E-03 4.946E-03

     total cpu time spent up to now is      343.5 secs

     total energy              =    -495.65862716 Ry
     estimated scf accuracy    <       0.01501649 Ry

     total magnetization       =     8.00 Bohr mag/cell
     absolute magnetization    =     8.61 Bohr mag/cell

     iteration # 59     ecut=    48.00 Ry     beta= 0.50
     Davidson diagonalization with overlap
     ethr =  1.77E-05,  avg # of iterations =  3.9

     negative rho (up, down):  4.585E-03 4.792E-03

     total cpu time spent up to now is      349.1 secs

     total energy              =    -495.66316261 Ry
     estimated scf accuracy    <       0.01031349 Ry

     total magnetization       =     8.00 Bohr mag/cell
     absolute magnetization    =     8.89 Bohr mag/cell

     iteration # 60     ecut=    48.00 Ry     beta= 0.50
     Davidson diagonalization with overlap
     ethr =  1.77E-05,  avg # of iterations =  1.9

     negative rho (up, down):  4.558E-03 4.812E-03

     total cpu time spent up to now is      354.0 secs

     total energy              =    -495.66369960 Ry
     estimated scf accuracy    <       0.00648762 Ry

     total magnetization       =     8.00 Bohr mag/cell
     absolute magnetization    =     8.90 Bohr mag/cell

     iteration # 61     ecut=    48.00 Ry     beta= 0.50
     Davidson diagonalization with overlap
     ethr =  1.77E-05,  avg # of iterations =  2.2

     negative rho (up, down):  5.236E-03 4.834E-03

     total cpu time spent up to now is      359.0 secs

     total energy              =    -495.66358390 Ry
     estimated scf accuracy    <       0.00277745 Ry

     total magnetization       =     8.00 Bohr mag/cell
     absolute magnetization    =     8.93 Bohr mag/cell

     iteration # 62     ecut=    48.00 Ry     beta= 0.50
     Davidson diagonalization with overlap
     ethr =  9.92E-06,  avg # of iterations =  1.0

     negative rho (up, down):  5.367E-03 4.820E-03

     total cpu time spent up to now is      363.8 secs

     total energy              =    -495.66386449 Ry
     estimated scf accuracy    <       0.00368627 Ry

     total magnetization       =     8.00 Bohr mag/cell
     absolute magnetization    =     8.92 Bohr mag/cell

     iteration # 63     ecut=    48.00 Ry     beta= 0.50
     Davidson diagonalization with overlap
     ethr =  9.92E-06,  avg # of iterations =  1.0

     negative rho (up, down):  5.396E-03 4.825E-03

     total cpu time spent up to now is      368.6 secs

     total energy              =    -495.66398179 Ry
     estimated scf accuracy    <       0.00280848 Ry

     total magnetization       =     8.00 Bohr mag/cell
     absolute magnetization    =     8.92 Bohr mag/cell

     iteration # 64     ecut=    48.00 Ry     beta= 0.50
     Davidson diagonalization with overlap
     ethr =  9.92E-06,  avg # of iterations =  1.0

     negative rho (up, down):  5.065E-03 4.844E-03

     total cpu time spent up to now is      373.4 secs

     total energy              =    -495.66433408 Ry
     estimated scf accuracy    <       0.00258003 Ry

     total magnetization       =     8.00 Bohr mag/cell
     absolute magnetization    =     8.92 Bohr mag/cell

     iteration # 65     ecut=    48.00 Ry     beta= 0.50
     Davidson diagonalization with overlap
     ethr =  9.21E-06,  avg # of iterations =  1.6

     negative rho (up, down):  4.525E-03 4.946E-03

     total cpu time spent up to now is      378.3 secs

     total energy              =    -495.66478649 Ry
     estimated scf accuracy    <       0.00171672 Ry

     total magnetization       =     8.00 Bohr mag/cell
     absolute magnetization    =     8.93 Bohr mag/cell

     iteration # 66     ecut=    48.00 Ry     beta= 0.50
     Davidson diagonalization with overlap
     ethr =  6.13E-06,  avg # of iterations =  4.7

     negative rho (up, down):  4.586E-03 5.089E-03

     total cpu time spent up to now is      383.7 secs

     total energy              =    -495.66533189 Ry
     estimated scf accuracy    <       0.00129785 Ry

     total magnetization       =     8.00 Bohr mag/cell
     absolute magnetization    =     8.94 Bohr mag/cell

     iteration # 67     ecut=    48.00 Ry     beta= 0.50
     Davidson diagonalization with overlap
     c_bands:  1 eigenvalues not converged
     c_bands:  1 eigenvalues not converged
     ethr =  4.64E-06,  avg # of iterations =  7.5

     negative rho (up, down):  4.495E-03 5.001E-03

     total cpu time spent up to now is      389.8 secs

     total energy              =    -495.66549997 Ry
     estimated scf accuracy    <       0.00053055 Ry

     total magnetization       =     8.00 Bohr mag/cell
     absolute magnetization    =     8.96 Bohr mag/cell

     iteration # 68     ecut=    48.00 Ry     beta= 0.50
     Davidson diagonalization with overlap
     c_bands:  1 eigenvalues not converged
     ethr =  1.89E-06,  avg # of iterations =  5.4

     negative rho (up, down):  4.721E-03 5.013E-03

     total cpu time spent up to now is      395.3 secs

     total energy              =    -495.66559579 Ry
     estimated scf accuracy    <       0.00184673 Ry

     total magnetization       =     8.00 Bohr mag/cell
     absolute magnetization    =     8.95 Bohr mag/cell

     iteration # 69     ecut=    48.00 Ry     beta= 0.50
     Davidson diagonalization with overlap
     ethr =  1.89E-06,  avg # of iterations =  2.8

     negative rho (up, down):  4.667E-03 5.016E-03

     total cpu time spent up to now is      400.4 secs

     total energy              =    -495.66560164 Ry
     estimated scf accuracy    <       0.00316942 Ry

     total magnetization       =     8.00 Bohr mag/cell
     absolute magnetization    =     8.93 Bohr mag/cell

     iteration # 70     ecut=    48.00 Ry     beta= 0.50
     Davidson diagonalization with overlap
     ethr =  1.89E-06,  avg # of iterations =  1.0

     negative rho (up, down):  4.665E-03 5.022E-03

     total cpu time spent up to now is      405.2 secs

     total energy              =    -495.66555683 Ry
     estimated scf accuracy    <       0.00290563 Ry

     total magnetization       =     8.00 Bohr mag/cell
     absolute magnetization    =     8.94 Bohr mag/cell

     iteration # 71     ecut=    48.00 Ry     beta= 0.50
     Davidson diagonalization with overlap
     ethr =  1.89E-06,  avg # of iterations =  1.0

     negative rho (up, down):  4.657E-03 5.028E-03

     total cpu time spent up to now is      410.0 secs

     total energy              =    -495.66552300 Ry
     estimated scf accuracy    <       0.00264337 Ry

     total magnetization       =     8.00 Bohr mag/cell
     absolute magnetization    =     8.94 Bohr mag/cell

     iteration # 72     ecut=    48.00 Ry     beta= 0.50
     Davidson diagonalization with overlap
     ethr =  1.89E-06,  avg # of iterations =  1.0

     negative rho (up, down):  4.680E-03 5.023E-03

     total cpu time spent up to now is      414.8 secs

     total energy              =    -495.66556110 Ry
     estimated scf accuracy    <       0.00238510 Ry

     total magnetization       =     8.00 Bohr mag/cell
     absolute magnetization    =     8.94 Bohr mag/cell

     iteration # 73     ecut=    48.00 Ry     beta= 0.50
     Davidson diagonalization with overlap
     ethr =  1.89E-06,  avg # of iterations =  1.0

     negative rho (up, down):  4.693E-03 5.017E-03

     total cpu time spent up to now is      419.6 secs

     total energy              =    -495.66558959 Ry
     estimated scf accuracy    <       0.00260727 Ry

     total magnetization       =     8.00 Bohr mag/cell
     absolute magnetization    =     8.94 Bohr mag/cell

     iteration # 74     ecut=    48.00 Ry     beta= 0.50
     Davidson diagonalization with overlap
     ethr =  1.89E-06,  avg # of iterations =  1.0

     negative rho (up, down):  4.554E-03 5.049E-03

     total cpu time spent up to now is      424.4 secs

     total energy              =    -495.66541998 Ry
     estimated scf accuracy    <       0.00282565 Ry

     total magnetization       =     8.00 Bohr mag/cell
     absolute magnetization    =     8.94 Bohr mag/cell

     iteration # 75     ecut=    48.00 Ry     beta= 0.50
     Davidson diagonalization with overlap
     ethr =  1.89E-06,  avg # of iterations =  3.6

     negative rho (up, down):  4.531E-03 5.134E-03

     total cpu time spent up to now is      429.6 secs

     total energy              =    -495.66519525 Ry
     estimated scf accuracy    <       0.00114127 Ry

     total magnetization       =     8.00 Bohr mag/cell
     absolute magnetization    =     8.96 Bohr mag/cell

     iteration # 76     ecut=    48.00 Ry     beta= 0.50
     Davidson diagonalization with overlap
     c_bands:  1 eigenvalues not converged
     ethr =  1.89E-06,  avg # of iterations = 10.2

     negative rho (up, down):  4.640E-03 5.069E-03

     total cpu time spent up to now is      436.5 secs

     total energy              =    -495.67578080 Ry
     estimated scf accuracy    <       0.01480941 Ry

     total magnetization       =     8.00 Bohr mag/cell
     absolute magnetization    =     9.12 Bohr mag/cell

     iteration # 77     ecut=    48.00 Ry     beta= 0.50
     Davidson diagonalization with overlap
     ethr =  1.89E-06,  avg # of iterations =  5.1

     negative rho (up, down):  4.904E-03 5.070E-03

     total cpu time spent up to now is      441.9 secs

     total energy              =    -495.67556254 Ry
     estimated scf accuracy    <       0.01880077 Ry

     total magnetization       =     8.00 Bohr mag/cell
     absolute magnetization    =     9.10 Bohr mag/cell

     iteration # 78     ecut=    48.00 Ry     beta= 0.50
     Davidson diagonalization with overlap
     ethr =  1.89E-06,  avg # of iterations =  1.1

     negative rho (up, down):  5.085E-03 5.058E-03

     total cpu time spent up to now is      446.7 secs

     total energy              =    -495.67584027 Ry
     estimated scf accuracy    <       0.01844583 Ry

     total magnetization       =     8.00 Bohr mag/cell
     absolute magnetization    =     9.10 Bohr mag/cell

     iteration # 79     ecut=    48.00 Ry     beta= 0.50
     Davidson diagonalization with overlap
     ethr =  1.89E-06,  avg # of iterations =  1.4

     negative rho (up, down):  5.198E-03 5.059E-03

     total cpu time spent up to now is      451.5 secs

     total energy              =    -495.67568974 Ry
     estimated scf accuracy    <       0.02004180 Ry

     total magnetization       =     8.00 Bohr mag/cell
     absolute magnetization    =     9.10 Bohr mag/cell

     iteration # 80     ecut=    48.00 Ry     beta= 0.50
     Davidson diagonalization with overlap
     ethr =  1.89E-06,  avg # of iterations =  1.0

     negative rho (up, down):  5.350E-03 5.032E-03

     total cpu time spent up to now is      456.3 secs

     total energy              =    -495.67650243 Ry
     estimated scf accuracy    <       0.01973932 Ry

     total magnetization       =     8.00 Bohr mag/cell
     absolute magnetization    =     9.10 Bohr mag/cell

     iteration # 81     ecut=    48.00 Ry     beta= 0.50
     Davidson diagonalization with overlap
     c_bands:  3 eigenvalues not converged
     c_bands:  2 eigenvalues not converged
     ethr =  1.89E-06,  avg # of iterations =  6.4

     negative rho (up, down):  5.425E-03 5.018E-03

     total cpu time spent up to now is      462.1 secs

     total energy              =    -495.67686323 Ry
     estimated scf accuracy    <       0.02664365 Ry

     total magnetization       =     8.00 Bohr mag/cell
     absolute magnetization    =     9.08 Bohr mag/cell

     iteration # 82     ecut=    48.00 Ry     beta= 0.50
     Davidson diagonalization with overlap
     c_bands:  1 eigenvalues not converged
     c_bands:  1 eigenvalues not converged
     ethr =  1.89E-06,  avg # of iterations =  4.4

     negative rho (up, down):  5.320E-03 5.050E-03

     total cpu time spent up to now is      467.6 secs

     total energy              =    -495.67608520 Ry
     estimated scf accuracy    <       0.02809335 Ry

     total magnetization       =     8.00 Bohr mag/cell
     absolute magnetization    =     9.07 Bohr mag/cell

     iteration # 83     ecut=    48.00 Ry     beta= 0.50
     Davidson diagonalization with overlap
     ethr =  1.89E-06,  avg # of iterations =  2.2

     negative rho (up, down):  5.347E-03 5.035E-03

     total cpu time spent up to now is      472.5 secs

     total energy              =    -495.67662009 Ry
     estimated scf accuracy    <       0.02497017 Ry

     total magnetization       =     8.00 Bohr mag/cell
     absolute magnetization    =     9.08 Bohr mag/cell

     iteration # 84     ecut=    48.00 Ry     beta= 0.50
     Davidson diagonalization with overlap
     ethr =  1.89E-06,  avg # of iterations =  1.0

     negative rho (up, down):  4.783E-03 7.139E-03

     total cpu time spent up to now is      477.3 secs

     total energy              =    -495.67171332 Ry
     estimated scf accuracy    <       0.02643330 Ry

     total magnetization       =     8.00 Bohr mag/cell
     absolute magnetization    =     9.08 Bohr mag/cell

     iteration # 85     ecut=    48.00 Ry     beta= 0.50
     Davidson diagonalization with overlap
     c_bands:  1 eigenvalues not converged
     c_bands:  1 eigenvalues not converged
     c_bands:  1 eigenvalues not converged
     c_bands:  1 eigenvalues not converged
     c_bands:  1 eigenvalues not converged
     ethr =  1.89E-06,  avg # of iterations = 16.2

     negative rho (up, down):  4.658E-03 7.031E-03

     total cpu time spent up to now is      486.7 secs

     total energy              =    -495.67768190 Ry
     estimated scf accuracy    <       0.00442988 Ry

     total magnetization       =     8.00 Bohr mag/cell
     absolute magnetization    =     9.14 Bohr mag/cell

     iteration # 86     ecut=    48.00 Ry     beta= 0.50
     Davidson diagonalization with overlap
     c_bands:  1 eigenvalues not converged
     ethr =  1.89E-06,  avg # of iterations =  3.6

     negative rho (up, down):  4.863E-03 7.367E-03

     total cpu time spent up to now is      491.9 secs

     total energy              =    -495.67884908 Ry
     estimated scf accuracy    <       0.00598993 Ry

     total magnetization       =     8.00 Bohr mag/cell
     absolute magnetization    =     9.13 Bohr mag/cell

     iteration # 87     ecut=    48.00 Ry     beta= 0.50
     Davidson diagonalization with overlap
     ethr =  1.89E-06,  avg # of iterations =  2.7

     negative rho (up, down):  4.827E-03 5.758E-03

     total cpu time spent up to now is      497.0 secs

     total energy              =    -495.67277451 Ry
     estimated scf accuracy    <       0.00887479 Ry

     total magnetization       =     8.00 Bohr mag/cell
     absolute magnetization    =     9.13 Bohr mag/cell

     iteration # 88     ecut=    48.00 Ry     beta= 0.50
     Davidson diagonalization with overlap
     ethr =  1.89E-06,  avg # of iterations =  6.8

     negative rho (up, down):  4.644E-03 5.502E-03

     total cpu time spent up to now is      503.1 secs

     total energy              =    -495.67240276 Ry
     estimated scf accuracy    <       0.00112104 Ry

     total magnetization       =     8.00 Bohr mag/cell
     absolute magnetization    =     9.15 Bohr mag/cell

     iteration # 89     ecut=    48.00 Ry     beta= 0.50
     Davidson diagonalization with overlap
     ethr =  1.89E-06,  avg # of iterations =  5.8

     negative rho (up, down):  4.528E-03 5.509E-03

     total cpu time spent up to now is      509.1 secs

     total energy              =    -495.67257476 Ry
     estimated scf accuracy    <       0.00023429 Ry

     total magnetization       =     8.00 Bohr mag/cell
     absolute magnetization    =     9.15 Bohr mag/cell

     iteration # 90     ecut=    48.00 Ry     beta= 0.50
     Davidson diagonalization with overlap
     ethr =  8.37E-07,  avg # of iterations =  2.7

     negative rho (up, down):  4.500E-03 5.457E-03

     total cpu time spent up to now is      514.2 secs

     total energy              =    -495.67255115 Ry
     estimated scf accuracy    <       0.00001554 Ry

     total magnetization       =     8.00 Bohr mag/cell
     absolute magnetization    =     9.16 Bohr mag/cell

     iteration # 91     ecut=    48.00 Ry     beta= 0.50
     Davidson diagonalization with overlap
     c_bands:  1 eigenvalues not converged
     ethr =  5.55E-08,  avg # of iterations =  9.1

     negative rho (up, down):  4.528E-03 5.739E-03

     total cpu time spent up to now is      520.7 secs

     total energy              =    -495.67397160 Ry
     estimated scf accuracy    <       0.00476474 Ry

     total magnetization       =     8.00 Bohr mag/cell
     absolute magnetization    =     9.22 Bohr mag/cell

     iteration # 92     ecut=    48.00 Ry     beta= 0.50
     Davidson diagonalization with overlap
     c_bands:  1 eigenvalues not converged
     c_bands:  1 eigenvalues not converged
     c_bands:  1 eigenvalues not converged
     c_bands:  1 eigenvalues not converged
     c_bands:  1 eigenvalues not converged
     c_bands:  1 eigenvalues not converged
     c_bands:  1 eigenvalues not converged
     ethr =  5.55E-08,  avg # of iterations = 12.5

     negative rho (up, down):  4.545E-03 5.826E-03

     total cpu time spent up to now is      528.9 secs

     total energy              =    -495.67454871 Ry
     estimated scf accuracy    <       0.00018343 Ry

     total magnetization       =     8.00 Bohr mag/cell
     absolute magnetization    =     9.20 Bohr mag/cell

     iteration # 93     ecut=    48.00 Ry     beta= 0.50
     Davidson diagonalization with overlap
     c_bands:  1 eigenvalues not converged
     c_bands:  1 eigenvalues not converged
     ethr =  5.55E-08,  avg # of iterations =  9.9

     negative rho (up, down):  4.670E-03 5.502E-03

     total cpu time spent up to now is      535.9 secs

     total energy              =    -495.67382334 Ry
     estimated scf accuracy    <       0.00108342 Ry

     total magnetization       =     8.00 Bohr mag/cell
     absolute magnetization    =     9.18 Bohr mag/cell

     iteration # 94     ecut=    48.00 Ry     beta= 0.50
     Davidson diagonalization with overlap
     c_bands:  2 eigenvalues not converged
     c_bands:  2 eigenvalues not converged
     c_bands:  2 eigenvalues not converged
     c_bands:  1 eigenvalues not converged
     c_bands:  2 eigenvalues not converged
     c_bands:  2 eigenvalues not converged
     c_bands:  2 eigenvalues not converged
     ethr =  5.55E-08,  avg # of iterations = 13.2

     negative rho (up, down):  4.543E-03 5.569E-03

     total cpu time spent up to now is      544.4 secs

     total energy              =    -495.67416769 Ry
     estimated scf accuracy    <       0.00373161 Ry

     total magnetization       =     8.00 Bohr mag/cell
     absolute magnetization    =     9.22 Bohr mag/cell

     iteration # 95     ecut=    48.00 Ry     beta= 0.50
     Davidson diagonalization with overlap
     c_bands:  1 eigenvalues not converged
     ethr =  5.55E-08,  avg # of iterations = 11.4

     negative rho (up, down):  4.539E-03 5.578E-03

     total cpu time spent up to now is      552.0 secs

     total energy              =    -495.67421952 Ry
     estimated scf accuracy    <       0.00102509 Ry

     total magnetization       =     8.00 Bohr mag/cell
     absolute magnetization    =     9.22 Bohr mag/cell

     iteration # 96     ecut=    48.00 Ry     beta= 0.50
     Davidson diagonalization with overlap
     ethr =  5.55E-08,  avg # of iterations =  5.4

     negative rho (up, down):  4.515E-03 5.611E-03

     total cpu time spent up to now is      557.9 secs

     total energy              =    -495.67412943 Ry
     estimated scf accuracy    <       0.00081281 Ry

     total magnetization       =     8.00 Bohr mag/cell
     absolute magnetization    =     9.21 Bohr mag/cell

     iteration # 97     ecut=    48.00 Ry     beta= 0.50
     Davidson diagonalization with overlap
     ethr =  5.55E-08,  avg # of iterations =  9.4

     negative rho (up, down):  4.567E-03 5.561E-03

     total cpu time spent up to now is      564.8 secs

     total energy              =    -495.67417149 Ry
     estimated scf accuracy    <       0.00030509 Ry

     total magnetization       =     8.00 Bohr mag/cell
     absolute magnetization    =     9.20 Bohr mag/cell

     iteration # 98     ecut=    48.00 Ry     beta= 0.50
     Davidson diagonalization with overlap
     ethr =  5.55E-08,  avg # of iterations =  9.8

     negative rho (up, down):  4.560E-03 5.538E-03

     total cpu time spent up to now is      571.9 secs

     total energy              =    -495.67432468 Ry
     estimated scf accuracy    <       0.00107225 Ry

     total magnetization       =     8.00 Bohr mag/cell
     absolute magnetization    =     9.21 Bohr mag/cell

     iteration # 99     ecut=    48.00 Ry     beta= 0.50
     Davidson diagonalization with overlap
     ethr =  5.55E-08,  avg # of iterations =  6.6

     negative rho (up, down):  4.592E-03 5.670E-03

     total cpu time spent up to now is      578.1 secs

     total energy              =    -495.67380000 Ry
     estimated scf accuracy    <       0.00219609 Ry

     total magnetization       =     8.00 Bohr mag/cell
     absolute magnetization    =     9.22 Bohr mag/cell

     iteration #100     ecut=    48.00 Ry     beta= 0.50
     Davidson diagonalization with overlap
     c_bands:  1 eigenvalues not converged
     c_bands:  2 eigenvalues not converged
     c_bands:  2 eigenvalues not converged
     c_bands:  1 eigenvalues not converged
     c_bands:  1 eigenvalues not converged
     c_bands:  1 eigenvalues not converged
     c_bands:  1 eigenvalues not converged
     c_bands:  2 eigenvalues not converged
     c_bands:  1 eigenvalues not converged
     ethr =  5.55E-08,  avg # of iterations = 13.7

     negative rho (up, down):  4.561E-03 5.741E-03

     total cpu time spent up to now is      586.7 secs

     total energy              =    -495.67445852 Ry
     estimated scf accuracy    <       0.00154822 Ry

     total magnetization       =     8.00 Bohr mag/cell
     absolute magnetization    =     9.17 Bohr mag/cell

     iteration #101     ecut=    48.00 Ry     beta= 0.50
     Davidson diagonalization with overlap
     ethr =  5.55E-08,  avg # of iterations =  8.3

     negative rho (up, down):  4.798E-03 5.769E-03

     total cpu time spent up to now is      593.0 secs

     total energy              =    -495.67460517 Ry
     estimated scf accuracy    <       0.00499690 Ry

     total magnetization       =     8.00 Bohr mag/cell
     absolute magnetization    =     9.15 Bohr mag/cell

     iteration #102     ecut=    48.00 Ry     beta= 0.50
     Davidson diagonalization with overlap
     ethr =  5.55E-08,  avg # of iterations =  5.4

     negative rho (up, down):  4.823E-03 5.640E-03

     total cpu time spent up to now is      598.7 secs

     total energy              =    -495.67412575 Ry
     estimated scf accuracy    <       0.00677625 Ry

     total magnetization       =     8.00 Bohr mag/cell
     absolute magnetization    =     9.14 Bohr mag/cell

     iteration #103     ecut=    48.00 Ry     beta= 0.50
     Davidson diagonalization with overlap
     ethr =  5.55E-08,  avg # of iterations =  7.8

     negative rho (up, down):  4.676E-03 5.591E-03

     total cpu time spent up to now is      605.3 secs

     total energy              =    -495.67414724 Ry
     estimated scf accuracy    <       0.00153272 Ry

     total magnetization       =     8.00 Bohr mag/cell
     absolute magnetization    =     9.17 Bohr mag/cell

     iteration #104     ecut=    48.00 Ry     beta= 0.50
     Davidson diagonalization with overlap
     ethr =  5.55E-08,  avg # of iterations =  4.1

     negative rho (up, down):  4.645E-03 5.599E-03

     total cpu time spent up to now is      610.7 secs

     total energy              =    -495.67415082 Ry
     estimated scf accuracy    <       0.00113421 Ry

     total magnetization       =     8.00 Bohr mag/cell
     absolute magnetization    =     9.17 Bohr mag/cell

     iteration #105     ecut=    48.00 Ry     beta= 0.50
     Davidson diagonalization with overlap
     ethr =  5.55E-08,  avg # of iterations =  3.2

     negative rho (up, down):  4.588E-03 5.577E-03

     total cpu time spent up to now is      615.9 secs

     total energy              =    -495.67408569 Ry
     estimated scf accuracy    <       0.00092570 Ry

     total magnetization       =     8.00 Bohr mag/cell
     absolute magnetization    =     9.17 Bohr mag/cell

     iteration #106     ecut=    48.00 Ry     beta= 0.50
     Davidson diagonalization with overlap
     ethr =  5.55E-08,  avg # of iterations =  7.2

     negative rho (up, down):  4.548E-03 5.576E-03

     total cpu time spent up to now is      622.2 secs

     total energy              =    -495.67409059 Ry
     estimated scf accuracy    <       0.00019910 Ry

     total magnetization       =     8.00 Bohr mag/cell
     absolute magnetization    =     9.18 Bohr mag/cell

     iteration #107     ecut=    48.00 Ry     beta= 0.50
     Davidson diagonalization with overlap
     ethr =  5.55E-08,  avg # of iterations =  5.9

     negative rho (up, down):  4.524E-03 5.578E-03

     total cpu time spent up to now is      628.0 secs

     total energy              =    -495.67410625 Ry
     estimated scf accuracy    <       0.00000587 Ry

     total magnetization       =     8.00 Bohr mag/cell
     absolute magnetization    =     9.19 Bohr mag/cell

     iteration #108     ecut=    48.00 Ry     beta= 0.50
     Davidson diagonalization with overlap
     ethr =  2.10E-08,  avg # of iterations =  6.0

     negative rho (up, down):  4.510E-03 5.581E-03

     total cpu time spent up to now is      633.9 secs

     total energy              =    -495.67411138 Ry
     estimated scf accuracy    <       0.00004528 Ry

     total magnetization       =     8.00 Bohr mag/cell
     absolute magnetization    =     9.19 Bohr mag/cell

     iteration #109     ecut=    48.00 Ry     beta= 0.50
     Davidson diagonalization with overlap
     ethr =  2.10E-08,  avg # of iterations =  3.6

     negative rho (up, down):  4.508E-03 5.580E-03

     total cpu time spent up to now is      639.1 secs

     total energy              =    -495.67411210 Ry
     estimated scf accuracy    <       0.00000755 Ry

     total magnetization       =     8.00 Bohr mag/cell
     absolute magnetization    =     9.19 Bohr mag/cell

     iteration #110     ecut=    48.00 Ry     beta= 0.50
     Davidson diagonalization with overlap
     ethr =  2.10E-08,  avg # of iterations =  2.6

     negative rho (up, down):  4.509E-03 5.581E-03

     total cpu time spent up to now is      644.1 secs

     total energy              =    -495.67411420 Ry
     estimated scf accuracy    <       0.00000131 Ry

     total magnetization       =     8.00 Bohr mag/cell
     absolute magnetization    =     9.19 Bohr mag/cell

     iteration #111     ecut=    48.00 Ry     beta= 0.50
     Davidson diagonalization with overlap
     ethr =  4.66E-09,  avg # of iterations =  6.4

     negative rho (up, down):  4.509E-03 5.580E-03

     total cpu time spent up to now is      650.0 secs

     total energy              =    -495.67411375 Ry
     estimated scf accuracy    <       0.00000726 Ry

     total magnetization       =     8.00 Bohr mag/cell
     absolute magnetization    =     9.19 Bohr mag/cell

     iteration #112     ecut=    48.00 Ry     beta= 0.50
     Davidson diagonalization with overlap
     ethr =  4.66E-09,  avg # of iterations =  2.4

     negative rho (up, down):  4.509E-03 5.580E-03

     total cpu time spent up to now is      655.0 secs

     total energy              =    -495.67411452 Ry
     estimated scf accuracy    <       0.00000280 Ry

     total magnetization       =     8.00 Bohr mag/cell
     absolute magnetization    =     9.19 Bohr mag/cell

     iteration #113     ecut=    48.00 Ry     beta= 0.50
     Davidson diagonalization with overlap
     ethr =  4.66E-09,  avg # of iterations =  1.0

     negative rho (up, down):  4.509E-03 5.579E-03

     total cpu time spent up to now is      659.8 secs

     total energy              =    -495.67411279 Ry
     estimated scf accuracy    <       0.00000305 Ry

     total magnetization       =     8.00 Bohr mag/cell
     absolute magnetization    =     9.19 Bohr mag/cell

     iteration #114     ecut=    48.00 Ry     beta= 0.50
     Davidson diagonalization with overlap
     ethr =  4.66E-09,  avg # of iterations =  3.3

     negative rho (up, down):  4.509E-03 5.577E-03

     total cpu time spent up to now is      665.0 secs

     total energy              =    -495.67411150 Ry
     estimated scf accuracy    <       0.00000046 Ry

     total magnetization       =     8.00 Bohr mag/cell
     absolute magnetization    =     9.19 Bohr mag/cell

     iteration #115     ecut=    48.00 Ry     beta= 0.50
     Davidson diagonalization with overlap
     ethr =  1.64E-09,  avg # of iterations =  5.3

     negative rho (up, down):  4.509E-03 5.577E-03

     total cpu time spent up to now is      670.8 secs

     total energy              =    -495.67411178 Ry
     estimated scf accuracy    <       0.00000201 Ry

     total magnetization       =     8.00 Bohr mag/cell
     absolute magnetization    =     9.19 Bohr mag/cell

     iteration #116     ecut=    48.00 Ry     beta= 0.50
     Davidson diagonalization with overlap
     ethr =  1.64E-09,  avg # of iterations =  1.6

     negative rho (up, down):  4.509E-03 5.577E-03

     total cpu time spent up to now is      675.7 secs

     total energy              =    -495.67411251 Ry
     estimated scf accuracy    <       0.00000285 Ry

     total magnetization       =     8.00 Bohr mag/cell
     absolute magnetization    =     9.19 Bohr mag/cell

     iteration #117     ecut=    48.00 Ry     beta= 0.50
     Davidson diagonalization with overlap
     ethr =  1.64E-09,  avg # of iterations =  1.0

     negative rho (up, down):  4.509E-03 5.579E-03

     total cpu time spent up to now is      680.5 secs

     total energy              =    -495.67411455 Ry
     estimated scf accuracy    <       0.00000253 Ry

     total magnetization       =     8.00 Bohr mag/cell
     absolute magnetization    =     9.19 Bohr mag/cell

     iteration #118     ecut=    48.00 Ry     beta= 0.50
     Davidson diagonalization with overlap
     ethr =  1.64E-09,  avg # of iterations =  5.2

     negative rho (up, down):  4.509E-03 5.579E-03

     total cpu time spent up to now is      686.2 secs

     total energy              =    -495.67411432 Ry
     estimated scf accuracy    <       0.00000026 Ry

     total magnetization       =     8.00 Bohr mag/cell
     absolute magnetization    =     9.19 Bohr mag/cell

     iteration #119     ecut=    48.00 Ry     beta= 0.50
     Davidson diagonalization with overlap
     ethr =  9.20E-10,  avg # of iterations =  1.1

     negative rho (up, down):  4.509E-03 5.579E-03

     total cpu time spent up to now is      691.0 secs

     total energy              =    -495.67411427 Ry
     estimated scf accuracy    <       0.00000025 Ry

     total magnetization       =     8.00 Bohr mag/cell
     absolute magnetization    =     9.19 Bohr mag/cell

     iteration #120     ecut=    48.00 Ry     beta= 0.50
     Davidson diagonalization with overlap
     ethr =  8.92E-10,  avg # of iterations =  1.0

     negative rho (up, down):  4.509E-03 5.579E-03

     total cpu time spent up to now is      695.8 secs

     total energy              =    -495.67411419 Ry
     estimated scf accuracy    <       0.00000024 Ry

     total magnetization       =     8.00 Bohr mag/cell
     absolute magnetization    =     9.19 Bohr mag/cell

     iteration #121     ecut=    48.00 Ry     beta= 0.50
     Davidson diagonalization with overlap
     ethr =  8.71E-10,  avg # of iterations =  1.0

     negative rho (up, down):  4.509E-03 5.580E-03

     total cpu time spent up to now is      700.6 secs

     total energy              =    -495.67411527 Ry
     estimated scf accuracy    <       0.00000023 Ry

     total magnetization       =     8.00 Bohr mag/cell
     absolute magnetization    =     9.19 Bohr mag/cell

     iteration #122     ecut=    48.00 Ry     beta= 0.50
     Davidson diagonalization with overlap
     ethr =  8.15E-10,  avg # of iterations =  3.3

     negative rho (up, down):  4.509E-03 5.579E-03

     total cpu time spent up to now is      705.8 secs

     total energy              =    -495.67411491 Ry
     estimated scf accuracy    <       0.00000066 Ry

     total magnetization       =     8.00 Bohr mag/cell
     absolute magnetization    =     9.19 Bohr mag/cell

     iteration #123     ecut=    48.00 Ry     beta= 0.50
     Davidson diagonalization with overlap
     ethr =  8.15E-10,  avg # of iterations =  3.3

     negative rho (up, down):  4.509E-03 5.579E-03
 
     Magnetic moment per site:
     atom:    1    charge:   13.6063    magn:    2.2884    constr:    0.0000
     atom:    2    charge:   13.5894    magn:    5.5399    constr:    0.0000

     total cpu time spent up to now is      710.9 secs

     End of self-consistent calculation

 ------ SPIN UP ------------


          k = 0.1667 0.2887 0.0000 ( 59267 PWs)   bands (ev):

   -75.0791 -74.8717 -47.1093 -46.3704 -46.3168 -46.3167 -46.1662 -46.1656
    -4.4836  -4.0586  -4.0583  -4.0062  -3.8836  -3.7580  -3.7578  -3.7235
    -3.7235  -3.6769

          k = 0.1667-0.4811 0.0000 ( 59291 PWs)   bands (ev):

   -75.0791 -74.8717 -47.1093 -46.3704 -46.3168 -46.3167 -46.1662 -46.1656
    -4.4788  -4.0586  -4.0581  -4.0061  -3.8849  -3.7580  -3.7577  -3.7236
    -3.7234  -3.6769

          k = 0.1667-0.0962 0.0000 ( 59226 PWs)   bands (ev):

   -75.0791 -74.8717 -47.1093 -46.3704 -46.3168 -46.3167 -46.1662 -46.1656
    -4.4884  -4.0586  -4.0585  -4.0063  -3.8822  -3.7580  -3.7580  -3.7237
    -3.7235  -3.6769

          k =-0.5000-0.8660 0.0000 ( 59292 PWs)   bands (ev):

   -75.0791 -74.8717 -47.1093 -46.3704 -46.3167 -46.3167 -46.1662 -46.1656
    -4.3307  -4.0567  -4.0565  -4.0376  -4.0061  -3.7614  -3.7613  -3.7393
    -3.7236  -3.7235

          k = 0.3333 0.0000 0.0000 ( 59267 PWs)   bands (ev):

   -75.0791 -74.8717 -47.1093 -46.3704 -46.3168 -46.3167 -46.1663 -46.1656
    -4.4029  -4.0574  -4.0572  -4.0062  -3.9580  -3.7602  -3.7602  -3.7237
    -3.7235  -3.7207

          k = 0.5000-0.0962 0.0000 ( 59291 PWs)   bands (ev):

   -75.0791 -74.8717 -47.1093 -46.3704 -46.3168 -46.3167 -46.1663 -46.1656
    -4.3307  -4.0568  -4.0564  -4.0376  -4.0061  -3.7614  -3.7612  -3.7393
    -3.7236  -3.7235

          k =-0.3333-0.3849 0.0000 ( 59291 PWs)   bands (ev):

   -75.0791 -74.8717 -47.1093 -46.3704 -46.3168 -46.3167 -46.1663 -46.1656
    -4.3960  -4.0574  -4.0570  -4.0061  -3.9624  -3.7603  -3.7601  -3.7236
    -3.7235  -3.7207

          k =-0.0000-0.1925 0.0000 ( 59226 PWs)   bands (ev):

   -75.0791 -74.8717 -47.1092 -46.3703 -46.3168 -46.3167 -46.1662 -46.1656
    -4.5187  -4.0592  -4.0590  -4.0063  -3.8643  -3.7568  -3.7568  -3.7236
    -3.7235  -3.6594

          k =-1.0000 0.0000 0.0000 ( 59292 PWs)   bands (ev):

   -75.0791 -74.8717 -47.1093 -46.3704 -46.3167 -46.3167 -46.1662 -46.1656
    -4.5101  -4.0593  -4.0587  -4.0061  -3.8657  -3.7569  -3.7565  -3.7236
    -3.7233  -3.6591

 ------ SPIN DOWN ----------


          k = 0.1667 0.2887 0.0000 ( 59267 PWs)   bands (ev):

   -72.6273 -70.5106 -44.2478 -44.2465 -43.7590 -42.0522 -41.9652 -41.9651
    -3.6568  -3.0728  -2.1331  -1.5514  -1.3924  -1.3921  -1.1412  -0.8721
    -0.8688  -0.6129

          k = 0.1667-0.4811 0.0000 ( 59291 PWs)   bands (ev):

   -72.6273 -70.5106 -44.2478 -44.2465 -43.7591 -42.0522 -41.9652 -41.9651
    -3.6499  -3.0730  -2.1342  -1.5527  -1.3927  -1.3899  -1.1375  -0.9961
    -0.8348  -0.6345

          k = 0.1667-0.0962 0.0000 ( 59226 PWs)   bands (ev):

   -72.6273 -70.5106 -44.2478 -44.2465 -43.7590 -42.0522 -41.9652 -41.9651
    -3.6635  -3.0726  -2.1306  -1.5488  -1.3946  -1.3921  -1.1424  -0.9000
    -0.7348  -0.5939

          k =-0.5000-0.8660 0.0000 ( 59292 PWs)   bands (ev):

   -72.6273 -70.5106 -44.2478 -44.2465 -43.7591 -42.0522 -41.9652 -41.9651
    -3.6226  -3.0728  -2.2515  -1.7088  -1.3951  -1.3949  -1.1393  -0.8256
    -0.8243  -0.1235

          k = 0.3333 0.0000 0.0000 ( 59267 PWs)   bands (ev):

   -72.6273 -70.5106 -44.2478 -44.2465 -43.7591 -42.0522 -41.9652 -41.9651
    -3.6392  -3.0727  -2.2063  -1.6717  -1.3959  -1.3941  -1.1407  -0.8625
    -0.7621  -0.2499

          k = 0.5000-0.0962 0.0000 ( 59291 PWs)   bands (ev):

   -72.6273 -70.5106 -44.2478 -44.2465 -43.7591 -42.0522 -41.9652 -41.9651
    -3.6226  -3.0728  -2.2506  -1.7087  -1.3956  -1.3952  -1.1389  -0.8422
    -0.8248  -0.1259

          k =-0.3333-0.3849 0.0000 ( 59291 PWs)   bands (ev):

   -72.6273 -70.5106 -44.2478 -44.2465 -43.7591 -42.0522 -41.9652 -41.9651
    -3.6320  -3.0729  -2.2107  -1.6740  -1.3943  -1.3935  -1.1389  -0.8909
    -0.8282  -0.2504

          k =-0.0000-0.1925 0.0000 ( 59226 PWs)   bands (ev):

   -72.6273 -70.5106 -44.2478 -44.2465 -43.7590 -42.0522 -41.9652 -41.9651
    -3.6718  -3.0727  -2.0989  -1.4275  -1.3928  -1.3912  -1.1427  -0.9028
    -0.8433  -0.7908

          k =-1.0000 0.0000 0.0000 ( 59292 PWs)   bands (ev):

   -72.6273 -70.5106 -44.2478 -44.2465 -43.7591 -42.0522 -41.9652 -41.9651
    -3.6584  -3.0730  -2.1003  -1.4244  -1.3919  -1.3876  -1.1358  -1.0419
    -0.8856  -0.8375

     the Fermi energy is    -2.4659 ev

!    total energy              =    -495.67411437 Ry

     total all-electron energy =     -4202.739471 Ry
     estimated scf accuracy    <       0.00000009 Ry
     smearing contrib. (-TS)   =      -0.00000000 Ry
     internal energy E=F+TS    =    -495.67411437 Ry

     The total energy is F=E-TS. E is the sum of the following terms:
     one-electron contribution =    -543.73195679 Ry
     hartree contribution      =     267.27304150 Ry
     xc contribution           =     -44.64677962 Ry
     ewald contribution        =     -26.20136548 Ry
     DFT-D3 Dispersion         =      -0.00594493 Ry
     one-center paw contrib.   =    -148.36110906 Ry

     total magnetization       =     8.00 Bohr mag/cell
     absolute magnetization    =     9.19 Bohr mag/cell

     convergence has been achieved in 123 iterations

     Writing output data file ./mytmp/2Cr0.26.save/
 
     init_run     :      4.07s CPU      4.51s WALL (       1 calls)
     electrons    :    620.48s CPU    706.32s WALL (       1 calls)

     Called by init_run:
     wfcinit      :      0.83s CPU      0.88s WALL (       1 calls)
     potinit      :      0.82s CPU      0.88s WALL (       1 calls)
     hinit0       :      0.78s CPU      0.86s WALL (       1 calls)

     Called by electrons:
     c_bands      :    300.47s CPU    322.33s WALL (     123 calls)
     sum_band     :    191.87s CPU    225.77s WALL (     123 calls)
     v_of_rho     :     37.77s CPU     42.57s WALL (     124 calls)
     newd         :     60.84s CPU     85.05s WALL (     124 calls)
     PAW_pot      :     16.16s CPU     17.04s WALL (     124 calls)
     mix_rho      :      9.39s CPU      9.53s WALL (     123 calls)

     Called by c_bands:
     init_us_2    :      3.83s CPU      3.99s WALL (    4446 calls)
     cegterg      :    286.74s CPU    308.19s WALL (    2216 calls)

     Called by *egterg:
     cdiaghg      :     31.79s CPU     41.19s WALL (   12510 calls)
     h_psi        :    207.26s CPU    215.92s WALL (   12528 calls)
     s_psi        :      4.52s CPU      4.64s WALL (   12528 calls)
     g_psi        :      0.68s CPU      0.72s WALL (   10294 calls)

     Called by h_psi:
     h_psi:calbec :      8.51s CPU      8.82s WALL (   12528 calls)
     vloc_psi     :    191.00s CPU    199.08s WALL (   12528 calls)
     add_vuspsi   :      6.41s CPU      6.64s WALL (   12528 calls)

     General routines
     calbec       :     10.61s CPU     10.99s WALL (   14742 calls)
     fft          :     32.27s CPU     35.33s WALL (    3094 calls)
     ffts         :      0.94s CPU      0.95s WALL (     494 calls)
     fftw         :    195.46s CPU    203.41s WALL (  252402 calls)
     interpolate  :      3.38s CPU      3.48s WALL (     248 calls)
 
     Parallel routines
     fft_scatt_xy :     35.48s CPU     36.67s WALL (  255990 calls)
     fft_scatt_yz :     87.95s CPU     94.11s WALL (  255990 calls)
 
     PWSCF        :  10m25.12s CPU  11m51.70s WALL

 
   This run was terminated on:  22: 0:45  30Mar2021            

=------------------------------------------------------------------------------=
   JOB DONE.
=------------------------------------------------------------------------------=
