
     Program PWSCF v.6.7MaX starts on 30Mar2021 at 19: 8:51 

     This program is part of the open-source Quantum ESPRESSO suite
     for quantum simulation of materials; please cite
         "P. Giannozzi et al., J. Phys.:Condens. Matter 21 395502 (2009);
         "P. Giannozzi et al., J. Phys.:Condens. Matter 29 465901 (2017);
          URL http://www.quantum-espresso.org", 
     in publications or presentations arising from this work. More details at
     http://www.quantum-espresso.org/quote

     Parallel version (MPI), running on    48 processors

     MPI processes distributed on     1 nodes
     R & G space division:  proc/nbgrp/npool/nimage =      48
     Reading input from 2Cr0.18.scf.in

     Current dimensions of program PWSCF are:
     Max number of different atomic species (ntypx) = 10
     Max number of k-points (npk) =  40000
     Max angular momentum in pseudopotentials (lmaxx) =  3
     file Cr.pbe-spn-kjpaw_psl.1.0.0.UPF: wavefunction(s)  3S 3P 3D renormalized
     file Cr.pbe-spn-kjpaw_psl.1.0.0.UPF: wavefunction(s)  3S 3P 3D renormalized

     --------------------------------------------
     Parameters for DFT-D3 Dispersion Correction:
     --------------------------------------------
       Reference C6 values for interpolation: 

         atom   Coordination number   C6
         Cr1        0.000          1381.48
         Cr1        1.827           571.38
         Cr1       10.619           306.69
         Cr2        0.000          1381.48
         Cr2        1.827           571.38
         Cr2       10.619           306.69

       Values used:

         atom   Coordination number  R0_AB[au]  C6      C8
         Cr1        0.049            3.252   1381.48 127495.13
         Cr2        0.049            3.252   1381.48 127495.13

         Molecular C6 ( Ry / a.u.^6 ) =      5525.93


     Subspace diagonalization in iterative solution of the eigenvalue problem:
     one sub-group per band group will be used
     scalapack distributed-memory algorithm (size of sub-group:  6*  6 procs)

 
     Parallelization info
     --------------------
     sticks:   dense  smooth     PW     G-vecs:    dense   smooth      PW
     Min         235      98     26                36277     9874    1408
     Max         236      99     27                36282     9883    1425
     Sum       11311    4741   1285              1741401   474235   68095
 


     bravais-lattice index     =            4
     lattice parameter (alat)  =      18.9275  a.u.
     unit-cell volume          =   10553.3021 (a.u.)^3
     number of atoms/cell      =            2
     number of atomic types    =            2
     number of electrons       =        28.00
     number of Kohn-Sham states=           18
     kinetic-energy cutoff     =      48.0000  Ry
     charge density cutoff     =     457.0000  Ry
     scf convergence threshold =      1.0E-07
     mixing beta               =       0.5000
     number of iterations used =            8  plain     mixing
     Exchange-correlation= SLA  PW   PBX  PBC
                           (   1   4   3   4   0   0   0)

     celldm(1)=  18.927497  celldm(2)=   0.000000  celldm(3)=   1.797125
     celldm(4)=   0.000000  celldm(5)=   0.000000  celldm(6)=   0.000000

     crystal axes: (cart. coord. in units of alat)
               a(1) = (   1.000000   0.000000   0.000000 )  
               a(2) = (  -0.500000   0.866025   0.000000 )  
               a(3) = (   0.000000   0.000000   1.797125 )  

     reciprocal axes: (cart. coord. in units 2 pi/alat)
               b(1) = (  1.000000  0.577350  0.000000 )  
               b(2) = (  0.000000  1.154701  0.000000 )  
               b(3) = (  0.000000  0.000000  0.556444 )  


     PseudoPot. # 1 for Cr read from file:
     /home/sf05/q-e-qe-6.7MaX-Release/pseudo/Cr.pbe-spn-kjpaw_psl.1.0.0.UPF
     MD5 check sum: 198f1a2427a48552563eee314eba32ba
     Pseudo is Projector augmented-wave + core cor, Zval = 14.0
     Generated using &quot;atomic&quot; code by A. Dal Corso  v.6.3
     Shape of augmentation charge: PSQ
     Using radial grid of 1183 points,  6 beta functions with: 
                l(1) =   0
                l(2) =   0
                l(3) =   1
                l(4) =   1
                l(5) =   2
                l(6) =   2
     Q(r) pseudized with 0 coefficients 


     PseudoPot. # 2 for Cr read from file:
     /home/sf05/q-e-qe-6.7MaX-Release/pseudo/Cr.pbe-spn-kjpaw_psl.1.0.0.UPF
     MD5 check sum: 198f1a2427a48552563eee314eba32ba
     Pseudo is Projector augmented-wave + core cor, Zval = 14.0
     Generated using &quot;atomic&quot; code by A. Dal Corso  v.6.3
     Shape of augmentation charge: PSQ
     Using radial grid of 1183 points,  6 beta functions with: 
                l(1) =   0
                l(2) =   0
                l(3) =   1
                l(4) =   1
                l(5) =   2
                l(6) =   2
     Q(r) pseudized with 0 coefficients 


     atomic species   valence    mass     pseudopotential
        Cr1           14.00    51.99610     Cr( 1.00)
        Cr2           14.00    51.99610     Cr( 1.00)

     Starting magnetic structure 
     atomic species   magnetization
        Cr1          1.000
        Cr2          1.000

      4 Sym. Ops. (no inversion) found ( 2 have fractional translation)



   Cartesian axes

     site n.     atom                  positions (alat units)
         1           Cr1 tau(   1) = (   0.4300000   0.4330127   0.8985623  )
         2           Cr2 tau(   2) = (   0.0700000   0.4330127   0.8985623  )

     number of k points=     9  Gaussian smearing, width (Ry)=  0.0000
                       cart. coord. in units 2pi/alat
        k(    1) = (   0.1666667   0.2886751   0.0000000), wk =   0.1481481
        k(    2) = (   0.1666667  -0.4811252   0.0000000), wk =   0.1481481
        k(    3) = (   0.1666667  -0.0962250   0.0000000), wk =   0.1481481
        k(    4) = (  -0.5000000  -0.8660254   0.0000000), wk =   0.0740741
        k(    5) = (   0.3333333   0.0000000   0.0000000), wk =   0.0740741
        k(    6) = (   0.5000000  -0.0962250   0.0000000), wk =   0.1481481
        k(    7) = (  -0.3333333  -0.3849002   0.0000000), wk =   0.1481481
        k(    8) = (  -0.0000000  -0.1924501   0.0000000), wk =   0.0740741
        k(    9) = (  -1.0000000   0.0000000   0.0000000), wk =   0.0370370

     Dense  grid:  1741401 G-vectors     FFT dimensions: ( 144, 135, 240)

     Smooth grid:   474235 G-vectors     FFT dimensions: (  90,  90, 160)

     Estimated max dynamical RAM per process >     152.07 MB

     Estimated total dynamical RAM >       7.13 GB
     Generating pointlists ...
     new r_m :   0.1485 (alat units)  2.8107 (a.u.) for type    1
     new r_m :   0.1485 (alat units)  2.8107 (a.u.) for type    2

     Initial potential from superposition of free atoms

     starting charge   27.99845, renormalised to   28.00000

     negative rho (up, down):  1.070E-02 2.944E-17
     Starting wfcs are   20 randomized atomic wfcs
     Checking if some PAW data can be deallocated... 

     total cpu time spent up to now is        4.7 secs

     Self-consistent Calculation

     iteration #  1     ecut=    48.00 Ry     beta= 0.50
     Davidson diagonalization with overlap
     ethr =  1.00E-02,  avg # of iterations =  7.5

     negative rho (up, down):  7.889E-03 0.000E+00

     total cpu time spent up to now is       12.4 secs

     total energy              =    -494.14699342 Ry
     estimated scf accuracy    <       4.71537490 Ry

     total magnetization       =     8.00 Bohr mag/cell
     absolute magnetization    =    10.73 Bohr mag/cell

     iteration #  2     ecut=    48.00 Ry     beta= 0.50
     Davidson diagonalization with overlap
     ethr =  1.00E-02,  avg # of iterations =  2.0

     negative rho (up, down):  1.439E-02 6.383E-04

     total cpu time spent up to now is       17.7 secs

     total energy              =    -495.45779564 Ry
     estimated scf accuracy    <       1.29527914 Ry

     total magnetization       =     8.00 Bohr mag/cell
     absolute magnetization    =     9.65 Bohr mag/cell

     iteration #  3     ecut=    48.00 Ry     beta= 0.50
     Davidson diagonalization with overlap
     ethr =  4.63E-03,  avg # of iterations =  1.0

     negative rho (up, down):  3.777E-02 2.189E-02

     total cpu time spent up to now is       22.5 secs

     total energy              =    -495.64036059 Ry
     estimated scf accuracy    <       0.23617483 Ry

     total magnetization       =     8.00 Bohr mag/cell
     absolute magnetization    =     9.28 Bohr mag/cell

     iteration #  4     ecut=    48.00 Ry     beta= 0.50
     Davidson diagonalization with overlap
     ethr =  8.43E-04,  avg # of iterations =  7.5

     negative rho (up, down):  2.518E-02 9.920E-03

     total cpu time spent up to now is       28.9 secs

     total energy              =    -495.73147574 Ry
     estimated scf accuracy    <       0.08207332 Ry

     total magnetization       =     8.00 Bohr mag/cell
     absolute magnetization    =     8.68 Bohr mag/cell

     iteration #  5     ecut=    48.00 Ry     beta= 0.50
     Davidson diagonalization with overlap
     ethr =  2.93E-04,  avg # of iterations =  4.0

     negative rho (up, down):  8.499E-03 4.769E-03

     total cpu time spent up to now is       34.4 secs

     total energy              =    -495.68754118 Ry
     estimated scf accuracy    <       0.13696481 Ry

     total magnetization       =     8.00 Bohr mag/cell
     absolute magnetization    =     8.65 Bohr mag/cell

     iteration #  6     ecut=    48.00 Ry     beta= 0.50
     Davidson diagonalization with overlap
     ethr =  2.93E-04,  avg # of iterations =  7.3

     negative rho (up, down):  6.669E-03 4.218E-03

     total cpu time spent up to now is       41.5 secs

     total energy              =    -495.71196102 Ry
     estimated scf accuracy    <       0.00699987 Ry

     total magnetization       =     8.00 Bohr mag/cell
     absolute magnetization    =     8.66 Bohr mag/cell

     iteration #  7     ecut=    48.00 Ry     beta= 0.50
     Davidson diagonalization with overlap
     c_bands:  4 eigenvalues not converged
     c_bands:  4 eigenvalues not converged
     c_bands:  1 eigenvalues not converged
     c_bands:  1 eigenvalues not converged
     c_bands:  2 eigenvalues not converged
     c_bands:  1 eigenvalues not converged
     c_bands:  2 eigenvalues not converged
     c_bands:  1 eigenvalues not converged
     ethr =  2.50E-05,  avg # of iterations = 14.7

     negative rho (up, down):  9.022E-03 4.434E-03

     total cpu time spent up to now is       50.0 secs

     total energy              =    -495.72693967 Ry
     estimated scf accuracy    <       0.21215027 Ry

     total magnetization       =     8.00 Bohr mag/cell
     absolute magnetization    =     8.82 Bohr mag/cell

     iteration #  8     ecut=    48.00 Ry     beta= 0.50
     Davidson diagonalization with overlap
     c_bands:  2 eigenvalues not converged
     c_bands:  1 eigenvalues not converged
     ethr =  2.50E-05,  avg # of iterations =  8.3

     negative rho (up, down):  1.081E-02 4.840E-03

     total cpu time spent up to now is       56.3 secs

     total energy              =    -495.71750936 Ry
     estimated scf accuracy    <       0.23867370 Ry

     total magnetization       =     8.00 Bohr mag/cell
     absolute magnetization    =     8.81 Bohr mag/cell

     iteration #  9     ecut=    48.00 Ry     beta= 0.50
     Davidson diagonalization with overlap
     ethr =  2.50E-05,  avg # of iterations =  2.3

     negative rho (up, down):  1.002E-02 4.899E-03

     total cpu time spent up to now is       61.4 secs

     total energy              =    -495.69935571 Ry
     estimated scf accuracy    <       0.20239447 Ry

     total magnetization       =     8.00 Bohr mag/cell
     absolute magnetization    =     8.83 Bohr mag/cell

     iteration # 10     ecut=    48.00 Ry     beta= 0.50
     Davidson diagonalization with overlap
     c_bands:  3 eigenvalues not converged
     c_bands:  1 eigenvalues not converged
     c_bands:  1 eigenvalues not converged
     c_bands:  2 eigenvalues not converged
     c_bands:  2 eigenvalues not converged
     c_bands:  2 eigenvalues not converged
     c_bands:  4 eigenvalues not converged
     c_bands:  1 eigenvalues not converged
     ethr =  2.50E-05,  avg # of iterations = 17.8

     negative rho (up, down):  6.792E-03 4.797E-03

     total cpu time spent up to now is       70.7 secs

     total energy              =    -495.75862759 Ry
     estimated scf accuracy    <       0.40477714 Ry

     total magnetization       =     8.00 Bohr mag/cell
     absolute magnetization    =     8.69 Bohr mag/cell

     iteration # 11     ecut=    48.00 Ry     beta= 0.50
     Davidson diagonalization with overlap
     c_bands:  2 eigenvalues not converged
     ethr =  2.50E-05,  avg # of iterations = 10.8

     negative rho (up, down):  1.024E-02 4.861E-03

     total cpu time spent up to now is       78.0 secs

     total energy              =    -495.76554810 Ry
     estimated scf accuracy    <       0.66970935 Ry

     total magnetization       =     8.00 Bohr mag/cell
     absolute magnetization    =     8.56 Bohr mag/cell

     iteration # 12     ecut=    48.00 Ry     beta= 0.50
     Davidson diagonalization with overlap
     ethr =  2.50E-05,  avg # of iterations =  1.0

     negative rho (up, down):  1.265E-02 5.062E-03

     total cpu time spent up to now is       82.8 secs

     total energy              =    -495.76545760 Ry
     estimated scf accuracy    <       0.68771163 Ry

     total magnetization       =     8.00 Bohr mag/cell
     absolute magnetization    =     8.55 Bohr mag/cell

     iteration # 13     ecut=    48.00 Ry     beta= 0.50
     Davidson diagonalization with overlap
     ethr =  2.50E-05,  avg # of iterations =  1.0

     negative rho (up, down):  1.403E-02 5.172E-03

     total cpu time spent up to now is       87.6 secs

     total energy              =    -495.77640705 Ry
     estimated scf accuracy    <       0.69408328 Ry

     total magnetization       =     8.00 Bohr mag/cell
     absolute magnetization    =     8.54 Bohr mag/cell

     iteration # 14     ecut=    48.00 Ry     beta= 0.50
     Davidson diagonalization with overlap
     ethr =  2.50E-05,  avg # of iterations =  1.5

     negative rho (up, down):  1.474E-02 5.591E-03

     total cpu time spent up to now is       92.5 secs

     total energy              =    -495.76406101 Ry
     estimated scf accuracy    <       0.81118844 Ry

     total magnetization       =     8.00 Bohr mag/cell
     absolute magnetization    =     8.47 Bohr mag/cell

     iteration # 15     ecut=    48.00 Ry     beta= 0.50
     Davidson diagonalization with overlap
     ethr =  2.50E-05,  avg # of iterations =  1.1

     negative rho (up, down):  1.863E-02 5.917E-03

     total cpu time spent up to now is       97.3 secs

     total energy              =    -495.75959610 Ry
     estimated scf accuracy    <       0.70552732 Ry

     total magnetization       =     8.00 Bohr mag/cell
     absolute magnetization    =     8.55 Bohr mag/cell

     iteration # 16     ecut=    48.00 Ry     beta= 0.50
     Davidson diagonalization with overlap
     ethr =  2.50E-05,  avg # of iterations =  3.8

     negative rho (up, down):  2.144E-02 5.916E-03

     total cpu time spent up to now is      102.9 secs

     total energy              =    -495.73810908 Ry
     estimated scf accuracy    <       0.62202514 Ry

     total magnetization       =     8.00 Bohr mag/cell
     absolute magnetization    =     8.63 Bohr mag/cell

     iteration # 17     ecut=    48.00 Ry     beta= 0.50
     Davidson diagonalization with overlap
     ethr =  2.50E-05,  avg # of iterations = 11.8

     negative rho (up, down):  2.016E-02 5.599E-03

     total cpu time spent up to now is      110.0 secs

     total energy              =    -495.70966095 Ry
     estimated scf accuracy    <       0.49244218 Ry

     total magnetization       =     8.00 Bohr mag/cell
     absolute magnetization    =     8.68 Bohr mag/cell

     iteration # 18     ecut=    48.00 Ry     beta= 0.50
     Davidson diagonalization with overlap
     c_bands:  2 eigenvalues not converged
     c_bands:  3 eigenvalues not converged
     c_bands:  1 eigenvalues not converged
     c_bands:  1 eigenvalues not converged
     ethr =  2.50E-05,  avg # of iterations = 13.0

     negative rho (up, down):  3.058E-02 6.255E-03

     total cpu time spent up to now is      118.4 secs

     total energy              =    -495.68393197 Ry
     estimated scf accuracy    <       0.27253130 Ry

     total magnetization       =     8.00 Bohr mag/cell
     absolute magnetization    =     8.66 Bohr mag/cell

     iteration # 19     ecut=    48.00 Ry     beta= 0.50
     Davidson diagonalization with overlap
     c_bands:  1 eigenvalues not converged
     c_bands:  4 eigenvalues not converged
     c_bands:  2 eigenvalues not converged
     c_bands:  1 eigenvalues not converged
     c_bands:  1 eigenvalues not converged
     c_bands:  1 eigenvalues not converged
     c_bands:  5 eigenvalues not converged
     c_bands:  2 eigenvalues not converged
     ethr =  2.50E-05,  avg # of iterations = 13.8

     negative rho (up, down):  9.974E-03 6.596E-03

     total cpu time spent up to now is      133.6 secs

     total energy              =    -495.64181745 Ry
     estimated scf accuracy    <       0.21857693 Ry

     total magnetization       =     8.00 Bohr mag/cell
     absolute magnetization    =     8.35 Bohr mag/cell

     iteration # 20     ecut=    48.00 Ry     beta= 0.50
     Davidson diagonalization with overlap
     ethr =  2.50E-05,  avg # of iterations =  9.4

     negative rho (up, down):  7.414E-03 5.221E-03

     total cpu time spent up to now is      145.8 secs

     total energy              =    -495.66512215 Ry
     estimated scf accuracy    <       0.07794121 Ry

     total magnetization       =     8.00 Bohr mag/cell
     absolute magnetization    =     8.48 Bohr mag/cell

     iteration # 21     ecut=    48.00 Ry     beta= 0.50
     Davidson diagonalization with overlap
     c_bands:  1 eigenvalues not converged
     c_bands:  1 eigenvalues not converged
     ethr =  2.50E-05,  avg # of iterations = 13.7

     negative rho (up, down):  5.997E-03 5.785E-03

     total cpu time spent up to now is      160.5 secs

     total energy              =    -495.67898068 Ry
     estimated scf accuracy    <       0.72755354 Ry

     total magnetization       =     8.00 Bohr mag/cell
     absolute magnetization    =     8.43 Bohr mag/cell

     iteration # 22     ecut=    48.00 Ry     beta= 0.50
     Davidson diagonalization with overlap
     c_bands:  1 eigenvalues not converged
     c_bands:  1 eigenvalues not converged
     c_bands:  1 eigenvalues not converged
     c_bands:  1 eigenvalues not converged
     c_bands:  1 eigenvalues not converged
     c_bands:  1 eigenvalues not converged
     c_bands:  1 eigenvalues not converged
     ethr =  2.50E-05,  avg # of iterations = 15.6

     negative rho (up, down):  5.951E-03 4.922E-03

     total cpu time spent up to now is      175.8 secs

     total energy              =    -495.71599491 Ry
     estimated scf accuracy    <       0.08397292 Ry

     total magnetization       =     8.00 Bohr mag/cell
     absolute magnetization    =     8.69 Bohr mag/cell

     iteration # 23     ecut=    48.00 Ry     beta= 0.50
     Davidson diagonalization with overlap
     ethr =  2.50E-05,  avg # of iterations =  5.5

     negative rho (up, down):  5.733E-03 4.960E-03

     total cpu time spent up to now is      184.8 secs

     total energy              =    -495.71699079 Ry
     estimated scf accuracy    <       0.02700062 Ry

     total magnetization       =     8.00 Bohr mag/cell
     absolute magnetization    =     8.66 Bohr mag/cell

     iteration # 24     ecut=    48.00 Ry     beta= 0.50
     Davidson diagonalization with overlap
     ethr =  2.50E-05,  avg # of iterations =  1.0

     negative rho (up, down):  6.377E-03 4.902E-03

     total cpu time spent up to now is      192.3 secs

     total energy              =    -495.70973239 Ry
     estimated scf accuracy    <       0.02387034 Ry

     total magnetization       =     8.00 Bohr mag/cell
     absolute magnetization    =     8.66 Bohr mag/cell

     iteration # 25     ecut=    48.00 Ry     beta= 0.50
     Davidson diagonalization with overlap
     c_bands:  4 eigenvalues not converged
     c_bands:  3 eigenvalues not converged
     c_bands:  4 eigenvalues not converged
     ethr =  2.50E-05,  avg # of iterations = 10.2

     negative rho (up, down):  8.124E-03 4.802E-03

     total cpu time spent up to now is      204.9 secs

     total energy              =    -495.72586446 Ry
     estimated scf accuracy    <       0.14622750 Ry

     total magnetization       =     8.00 Bohr mag/cell
     absolute magnetization    =     8.71 Bohr mag/cell

     iteration # 26     ecut=    48.00 Ry     beta= 0.50
     Davidson diagonalization with overlap
     c_bands:  2 eigenvalues not converged
     c_bands:  2 eigenvalues not converged
     ethr =  2.50E-05,  avg # of iterations =  4.6

     negative rho (up, down):  7.441E-03 4.831E-03

     total cpu time spent up to now is      214.0 secs

     total energy              =    -495.71731158 Ry
     estimated scf accuracy    <       0.15377943 Ry

     total magnetization       =     8.00 Bohr mag/cell
     absolute magnetization    =     8.71 Bohr mag/cell

     iteration # 27     ecut=    48.00 Ry     beta= 0.50
     Davidson diagonalization with overlap
     ethr =  2.50E-05,  avg # of iterations =  4.9

     negative rho (up, down):  6.577E-03 4.893E-03

     total cpu time spent up to now is      222.8 secs

     total energy              =    -495.71126964 Ry
     estimated scf accuracy    <       0.10397473 Ry

     total magnetization       =     8.00 Bohr mag/cell
     absolute magnetization    =     8.73 Bohr mag/cell

     iteration # 28     ecut=    48.00 Ry     beta= 0.50
     Davidson diagonalization with overlap
     ethr =  2.50E-05,  avg # of iterations = 10.3

     negative rho (up, down):  8.598E-03 4.810E-03

     total cpu time spent up to now is      234.9 secs

     total energy              =    -495.71485686 Ry
     estimated scf accuracy    <       0.02480352 Ry

     total magnetization       =     8.00 Bohr mag/cell
     absolute magnetization    =     8.73 Bohr mag/cell

     iteration # 29     ecut=    48.00 Ry     beta= 0.50
     Davidson diagonalization with overlap
     ethr =  2.50E-05,  avg # of iterations =  3.6

     negative rho (up, down):  9.599E-03 4.826E-03

     total cpu time spent up to now is      243.1 secs

     total energy              =    -495.71711206 Ry
     estimated scf accuracy    <       0.05407006 Ry

     total magnetization       =     8.00 Bohr mag/cell
     absolute magnetization    =     8.74 Bohr mag/cell

     iteration # 30     ecut=    48.00 Ry     beta= 0.50
     Davidson diagonalization with overlap
     ethr =  2.50E-05,  avg # of iterations =  2.6

     negative rho (up, down):  8.516E-03 4.807E-03

     total cpu time spent up to now is      251.8 secs

     total energy              =    -495.71684338 Ry
     estimated scf accuracy    <       0.06719030 Ry

     total magnetization       =     8.00 Bohr mag/cell
     absolute magnetization    =     8.74 Bohr mag/cell

     iteration # 31     ecut=    48.00 Ry     beta= 0.50
     Davidson diagonalization with overlap
     ethr =  2.50E-05,  avg # of iterations =  1.1

     negative rho (up, down):  7.852E-03 4.824E-03

     total cpu time spent up to now is      259.7 secs

     total energy              =    -495.71587625 Ry
     estimated scf accuracy    <       0.06341648 Ry

     total magnetization       =     8.00 Bohr mag/cell
     absolute magnetization    =     8.74 Bohr mag/cell

     iteration # 32     ecut=    48.00 Ry     beta= 0.50
     Davidson diagonalization with overlap
     ethr =  2.50E-05,  avg # of iterations =  1.0

     negative rho (up, down):  7.633E-03 4.819E-03

     total cpu time spent up to now is      266.2 secs

     total energy              =    -495.71565636 Ry
     estimated scf accuracy    <       0.05971387 Ry

     total magnetization       =     8.00 Bohr mag/cell
     absolute magnetization    =     8.74 Bohr mag/cell

     iteration # 33     ecut=    48.00 Ry     beta= 0.50
     Davidson diagonalization with overlap
     ethr =  2.50E-05,  avg # of iterations =  1.0

     negative rho (up, down):  5.646E-03 5.020E-03

     total cpu time spent up to now is      273.4 secs

     total energy              =    -495.70491647 Ry
     estimated scf accuracy    <       0.05844251 Ry

     total magnetization       =     8.00 Bohr mag/cell
     absolute magnetization    =     8.74 Bohr mag/cell

     iteration # 34     ecut=    48.00 Ry     beta= 0.50
     Davidson diagonalization with overlap
     c_bands:  1 eigenvalues not converged
     c_bands:  1 eigenvalues not converged
     c_bands:  3 eigenvalues not converged
     c_bands:  3 eigenvalues not converged
     c_bands:  4 eigenvalues not converged
     c_bands:  2 eigenvalues not converged
     c_bands:  2 eigenvalues not converged
     ethr =  2.50E-05,  avg # of iterations = 14.7

     negative rho (up, down):  6.678E-03 4.781E-03

     total cpu time spent up to now is      287.0 secs

     total energy              =    -495.71403686 Ry
     estimated scf accuracy    <       0.36420130 Ry

     total magnetization       =     8.00 Bohr mag/cell
     absolute magnetization    =     8.69 Bohr mag/cell

     iteration # 35     ecut=    48.00 Ry     beta= 0.50
     Davidson diagonalization with overlap
     ethr =  2.50E-05,  avg # of iterations =  7.9

     negative rho (up, down):  8.672E-03 4.791E-03

     total cpu time spent up to now is      296.3 secs

     total energy              =    -495.71280862 Ry
     estimated scf accuracy    <       0.19675851 Ry

     total magnetization       =     8.00 Bohr mag/cell
     absolute magnetization    =     8.71 Bohr mag/cell

     iteration # 36     ecut=    48.00 Ry     beta= 0.50
     Davidson diagonalization with overlap
     ethr =  2.50E-05,  avg # of iterations =  2.3

     negative rho (up, down):  1.085E-02 4.777E-03

     total cpu time spent up to now is      303.0 secs

     total energy              =    -495.71336594 Ry
     estimated scf accuracy    <       0.18121714 Ry

     total magnetization       =     8.00 Bohr mag/cell
     absolute magnetization    =     8.72 Bohr mag/cell

     iteration # 37     ecut=    48.00 Ry     beta= 0.50
     Davidson diagonalization with overlap
     ethr =  2.50E-05,  avg # of iterations =  1.0

     negative rho (up, down):  5.804E-03 5.350E-03

     total cpu time spent up to now is      310.8 secs

     total energy              =    -495.69356670 Ry
     estimated scf accuracy    <       0.18119472 Ry

     total magnetization       =     8.00 Bohr mag/cell
     absolute magnetization    =     8.72 Bohr mag/cell

     iteration # 38     ecut=    48.00 Ry     beta= 0.50
     Davidson diagonalization with overlap
     c_bands:  1 eigenvalues not converged
     c_bands:  1 eigenvalues not converged
     c_bands:  1 eigenvalues not converged
     c_bands:  1 eigenvalues not converged
     ethr =  2.50E-05,  avg # of iterations = 14.3

     negative rho (up, down):  5.945E-03 5.011E-03

     total cpu time spent up to now is      326.0 secs

     total energy              =    -495.72643817 Ry
     estimated scf accuracy    <       0.16929059 Ry

     total magnetization       =     8.00 Bohr mag/cell
     absolute magnetization    =     8.71 Bohr mag/cell

     iteration # 39     ecut=    48.00 Ry     beta= 0.50
     Davidson diagonalization with overlap
     ethr =  2.50E-05,  avg # of iterations =  1.1

     negative rho (up, down):  8.007E-03 4.956E-03

     total cpu time spent up to now is      334.1 secs

     total energy              =    -495.72791022 Ry
     estimated scf accuracy    <       0.17204543 Ry

     total magnetization       =     8.00 Bohr mag/cell
     absolute magnetization    =     8.71 Bohr mag/cell

     iteration # 40     ecut=    48.00 Ry     beta= 0.50
     Davidson diagonalization with overlap
     ethr =  2.50E-05,  avg # of iterations =  1.0

     negative rho (up, down):  1.003E-02 4.985E-03

     total cpu time spent up to now is      340.7 secs

     total energy              =    -495.73116013 Ry
     estimated scf accuracy    <       0.18026495 Ry

     total magnetization       =     8.00 Bohr mag/cell
     absolute magnetization    =     8.70 Bohr mag/cell

     iteration # 41     ecut=    48.00 Ry     beta= 0.50
     Davidson diagonalization with overlap
     ethr =  2.50E-05,  avg # of iterations =  1.1

     negative rho (up, down):  1.081E-02 5.017E-03

     total cpu time spent up to now is      347.7 secs

     total energy              =    -495.73213926 Ry
     estimated scf accuracy    <       0.20492255 Ry

     total magnetization       =     8.00 Bohr mag/cell
     absolute magnetization    =     8.68 Bohr mag/cell

     iteration # 42     ecut=    48.00 Ry     beta= 0.50
     Davidson diagonalization with overlap
     ethr =  2.50E-05,  avg # of iterations =  1.0

     negative rho (up, down):  1.554E-02 5.494E-03

     total cpu time spent up to now is      355.2 secs

     total energy              =    -495.74693477 Ry
     estimated scf accuracy    <       0.21038737 Ry

     total magnetization       =     8.00 Bohr mag/cell
     absolute magnetization    =     8.68 Bohr mag/cell

     iteration # 43     ecut=    48.00 Ry     beta= 0.50
     Davidson diagonalization with overlap
     ethr =  2.50E-05,  avg # of iterations =  9.6

     negative rho (up, down):  7.888E-03 5.948E-03

     total cpu time spent up to now is      366.8 secs

     total energy              =    -495.70911279 Ry
     estimated scf accuracy    <       0.82518025 Ry

     total magnetization       =     8.00 Bohr mag/cell
     absolute magnetization    =     8.46 Bohr mag/cell

     iteration # 44     ecut=    48.00 Ry     beta= 0.50
     Davidson diagonalization with overlap
     ethr =  2.50E-05,  avg # of iterations = 11.7

     negative rho (up, down):  7.290E-03 5.598E-03

     total cpu time spent up to now is      380.9 secs

     total energy              =    -495.72444685 Ry
     estimated scf accuracy    <       0.33945926 Ry

     total magnetization       =     8.00 Bohr mag/cell
     absolute magnetization    =     8.73 Bohr mag/cell

     iteration # 45     ecut=    48.00 Ry     beta= 0.50
     Davidson diagonalization with overlap
     ethr =  2.50E-05,  avg # of iterations =  1.7

     negative rho (up, down):  7.033E-03 7.469E-03

     total cpu time spent up to now is      388.3 secs

     total energy              =    -495.72713816 Ry
     estimated scf accuracy    <       0.31780700 Ry

     total magnetization       =     8.00 Bohr mag/cell
     absolute magnetization    =     8.75 Bohr mag/cell

     iteration # 46     ecut=    48.00 Ry     beta= 0.50
     Davidson diagonalization with overlap
     ethr =  2.50E-05,  avg # of iterations =  8.9

     negative rho (up, down):  9.142E-03 9.674E-03

     total cpu time spent up to now is      399.0 secs

     total energy              =    -495.70440832 Ry
     estimated scf accuracy    <       0.27786584 Ry

     total magnetization       =     8.00 Bohr mag/cell
     absolute magnetization    =     8.81 Bohr mag/cell

     iteration # 47     ecut=    48.00 Ry     beta= 0.50
     Davidson diagonalization with overlap
     c_bands:  1 eigenvalues not converged
     c_bands:  3 eigenvalues not converged
     c_bands:  1 eigenvalues not converged
     c_bands:  5 eigenvalues not converged
     ethr =  2.50E-05,  avg # of iterations = 14.8

     negative rho (up, down):  7.087E-03 7.428E-03

     total cpu time spent up to now is      413.6 secs

     total energy              =    -495.70227339 Ry
     estimated scf accuracy    <       0.14153186 Ry

     total magnetization       =     8.00 Bohr mag/cell
     absolute magnetization    =     8.86 Bohr mag/cell

     iteration # 48     ecut=    48.00 Ry     beta= 0.50
     Davidson diagonalization with overlap
     c_bands:  4 eigenvalues not converged
     c_bands:  1 eigenvalues not converged
     c_bands:  1 eigenvalues not converged
     c_bands:  1 eigenvalues not converged
     ethr =  2.50E-05,  avg # of iterations = 10.5

     negative rho (up, down):  7.189E-03 6.761E-03

     total cpu time spent up to now is      425.4 secs

     total energy              =    -495.70413199 Ry
     estimated scf accuracy    <       0.08079874 Ry

     total magnetization       =     8.00 Bohr mag/cell
     absolute magnetization    =     8.84 Bohr mag/cell

     iteration # 49     ecut=    48.00 Ry     beta= 0.50
     Davidson diagonalization with overlap
     ethr =  2.50E-05,  avg # of iterations =  1.7

     negative rho (up, down):  8.078E-03 6.577E-03

     total cpu time spent up to now is      433.7 secs

     total energy              =    -495.71046820 Ry
     estimated scf accuracy    <       0.07836086 Ry

     total magnetization       =     8.00 Bohr mag/cell
     absolute magnetization    =     8.86 Bohr mag/cell

     iteration # 50     ecut=    48.00 Ry     beta= 0.50
     Davidson diagonalization with overlap
     ethr =  2.50E-05,  avg # of iterations =  5.2

     negative rho (up, down):  6.649E-03 5.264E-03

     total cpu time spent up to now is      443.3 secs

     total energy              =    -495.70391020 Ry
     estimated scf accuracy    <       0.13449020 Ry

     total magnetization       =     8.00 Bohr mag/cell
     absolute magnetization    =     8.83 Bohr mag/cell

     iteration # 51     ecut=    48.00 Ry     beta= 0.50
     Davidson diagonalization with overlap
     c_bands:  1 eigenvalues not converged
     c_bands:  1 eigenvalues not converged
     c_bands:  1 eigenvalues not converged
     c_bands:  1 eigenvalues not converged
     c_bands:  1 eigenvalues not converged
     c_bands:  1 eigenvalues not converged
     ethr =  2.50E-05,  avg # of iterations =  8.7

     negative rho (up, down):  6.547E-03 5.081E-03

     total cpu time spent up to now is      454.8 secs

     total energy              =    -495.71420870 Ry
     estimated scf accuracy    <       0.02715781 Ry

     total magnetization       =     8.00 Bohr mag/cell
     absolute magnetization    =     8.71 Bohr mag/cell

     iteration # 52     ecut=    48.00 Ry     beta= 0.50
     Davidson diagonalization with overlap
     ethr =  2.50E-05,  avg # of iterations = 12.2

     negative rho (up, down):  6.724E-03 5.425E-03

     total cpu time spent up to now is      469.0 secs

     total energy              =    -495.70321596 Ry
     estimated scf accuracy    <       0.47201505 Ry

     total magnetization       =     8.00 Bohr mag/cell
     absolute magnetization    =     8.66 Bohr mag/cell

     iteration # 53     ecut=    48.00 Ry     beta= 0.50
     Davidson diagonalization with overlap
     c_bands:  1 eigenvalues not converged
     c_bands:  1 eigenvalues not converged
     c_bands:  2 eigenvalues not converged
     ethr =  2.50E-05,  avg # of iterations = 13.9

     negative rho (up, down):  5.354E-03 4.922E-03

     total cpu time spent up to now is      486.4 secs

     total energy              =    -495.71065911 Ry
     estimated scf accuracy    <       0.04969103 Ry

     total magnetization       =     8.00 Bohr mag/cell
     absolute magnetization    =     8.71 Bohr mag/cell

     iteration # 54     ecut=    48.00 Ry     beta= 0.50
     Davidson diagonalization with overlap
     ethr =  2.50E-05,  avg # of iterations =  1.8

     negative rho (up, down):  5.494E-03 4.835E-03

     total cpu time spent up to now is      495.1 secs

     total energy              =    -495.71077930 Ry
     estimated scf accuracy    <       0.04078030 Ry

     total magnetization       =     8.00 Bohr mag/cell
     absolute magnetization    =     8.71 Bohr mag/cell

     iteration # 55     ecut=    48.00 Ry     beta= 0.50
     Davidson diagonalization with overlap
     ethr =  2.50E-05,  avg # of iterations =  1.1

     negative rho (up, down):  5.296E-03 4.839E-03

     total cpu time spent up to now is      502.9 secs

     total energy              =    -495.70613134 Ry
     estimated scf accuracy    <       0.03861800 Ry

     total magnetization       =     8.00 Bohr mag/cell
     absolute magnetization    =     8.71 Bohr mag/cell

     iteration # 56     ecut=    48.00 Ry     beta= 0.50
     Davidson diagonalization with overlap
     c_bands:  1 eigenvalues not converged
     c_bands:  2 eigenvalues not converged
     c_bands:  2 eigenvalues not converged
     ethr =  2.50E-05,  avg # of iterations = 13.1

     negative rho (up, down):  5.145E-03 4.822E-03

     total cpu time spent up to now is      517.1 secs

     total energy              =    -495.71282402 Ry
     estimated scf accuracy    <       0.06017398 Ry

     total magnetization       =     8.00 Bohr mag/cell
     absolute magnetization    =     8.73 Bohr mag/cell

     iteration # 57     ecut=    48.00 Ry     beta= 0.50
     Davidson diagonalization with overlap
     ethr =  2.50E-05,  avg # of iterations =  3.7

     negative rho (up, down):  5.189E-03 4.857E-03

     total cpu time spent up to now is      525.4 secs

     total energy              =    -495.71184121 Ry
     estimated scf accuracy    <       0.03325710 Ry

     total magnetization       =     8.00 Bohr mag/cell
     absolute magnetization    =     8.74 Bohr mag/cell

     iteration # 58     ecut=    48.00 Ry     beta= 0.50
     Davidson diagonalization with overlap
     ethr =  2.50E-05,  avg # of iterations =  3.0

     negative rho (up, down):  6.572E-03 4.825E-03

     total cpu time spent up to now is      534.4 secs

     total energy              =    -495.71415049 Ry
     estimated scf accuracy    <       0.02158713 Ry

     total magnetization       =     8.00 Bohr mag/cell
     absolute magnetization    =     8.74 Bohr mag/cell

     iteration # 59     ecut=    48.00 Ry     beta= 0.50
     Davidson diagonalization with overlap
     ethr =  2.50E-05,  avg # of iterations =  1.7

     negative rho (up, down):  6.603E-03 4.798E-03

     total cpu time spent up to now is      543.2 secs

     total energy              =    -495.71523512 Ry
     estimated scf accuracy    <       0.03229325 Ry

     total magnetization       =     8.00 Bohr mag/cell
     absolute magnetization    =     8.74 Bohr mag/cell

     iteration # 60     ecut=    48.00 Ry     beta= 0.50
     Davidson diagonalization with overlap
     ethr =  2.50E-05,  avg # of iterations =  1.1

     negative rho (up, down):  6.002E-03 4.795E-03

     total cpu time spent up to now is      551.4 secs

     total energy              =    -495.71533074 Ry
     estimated scf accuracy    <       0.03343382 Ry

     total magnetization       =     8.00 Bohr mag/cell
     absolute magnetization    =     8.74 Bohr mag/cell

     iteration # 61     ecut=    48.00 Ry     beta= 0.50
     Davidson diagonalization with overlap
     ethr =  2.50E-05,  avg # of iterations =  1.0

     negative rho (up, down):  6.351E-03 4.786E-03

     total cpu time spent up to now is      558.8 secs

     total energy              =    -495.71471191 Ry
     estimated scf accuracy    <       0.03109823 Ry

     total magnetization       =     8.00 Bohr mag/cell
     absolute magnetization    =     8.74 Bohr mag/cell

     iteration # 62     ecut=    48.00 Ry     beta= 0.50
     Davidson diagonalization with overlap
     ethr =  2.50E-05,  avg # of iterations =  1.0

     negative rho (up, down):  6.150E-03 4.801E-03

     total cpu time spent up to now is      566.8 secs

     total energy              =    -495.71249304 Ry
     estimated scf accuracy    <       0.02996625 Ry

     total magnetization       =     8.00 Bohr mag/cell
     absolute magnetization    =     8.74 Bohr mag/cell

     iteration # 63     ecut=    48.00 Ry     beta= 0.50
     Davidson diagonalization with overlap
     ethr =  2.50E-05,  avg # of iterations =  1.8

     negative rho (up, down):  6.134E-03 4.793E-03

     total cpu time spent up to now is      574.8 secs

     total energy              =    -495.71277213 Ry
     estimated scf accuracy    <       0.02178045 Ry

     total magnetization       =     8.00 Bohr mag/cell
     absolute magnetization    =     8.74 Bohr mag/cell

     iteration # 64     ecut=    48.00 Ry     beta= 0.50
     Davidson diagonalization with overlap
     ethr =  2.50E-05,  avg # of iterations =  1.0

     negative rho (up, down):  5.715E-03 5.421E-03

     total cpu time spent up to now is      582.3 secs

     total energy              =    -495.70453708 Ry
     estimated scf accuracy    <       0.02153396 Ry

     total magnetization       =     8.00 Bohr mag/cell
     absolute magnetization    =     8.74 Bohr mag/cell

     iteration # 65     ecut=    48.00 Ry     beta= 0.50
     Davidson diagonalization with overlap
     c_bands:  2 eigenvalues not converged
     c_bands:  3 eigenvalues not converged
     c_bands:  1 eigenvalues not converged
     c_bands:  1 eigenvalues not converged
     c_bands:  1 eigenvalues not converged
     c_bands:  5 eigenvalues not converged
     c_bands:  1 eigenvalues not converged
     c_bands:  1 eigenvalues not converged
     ethr =  2.50E-05,  avg # of iterations = 16.4

     negative rho (up, down):  6.147E-03 4.838E-03

     total cpu time spent up to now is      599.4 secs

     total energy              =    -495.70820930 Ry
     estimated scf accuracy    <       0.45939032 Ry

     total magnetization       =     8.00 Bohr mag/cell
     absolute magnetization    =     8.64 Bohr mag/cell

     iteration # 66     ecut=    48.00 Ry     beta= 0.50
     Davidson diagonalization with overlap
     ethr =  2.50E-05,  avg # of iterations = 11.5

     negative rho (up, down):  9.134E-03 4.796E-03

     total cpu time spent up to now is      611.5 secs

     total energy              =    -495.71246929 Ry
     estimated scf accuracy    <       0.24202755 Ry

     total magnetization       =     8.00 Bohr mag/cell
     absolute magnetization    =     8.72 Bohr mag/cell

     iteration # 67     ecut=    48.00 Ry     beta= 0.50
     Davidson diagonalization with overlap
     ethr =  2.50E-05,  avg # of iterations =  1.4

     negative rho (up, down):  1.115E-02 4.785E-03

     total cpu time spent up to now is      619.4 secs

     total energy              =    -495.71153988 Ry
     estimated scf accuracy    <       0.23499336 Ry

     total magnetization       =     8.00 Bohr mag/cell
     absolute magnetization    =     8.72 Bohr mag/cell

     iteration # 68     ecut=    48.00 Ry     beta= 0.50
     Davidson diagonalization with overlap
     ethr =  2.50E-05,  avg # of iterations =  1.0

     negative rho (up, down):  1.260E-02 4.789E-03

     total cpu time spent up to now is      625.8 secs

     total energy              =    -495.71259434 Ry
     estimated scf accuracy    <       0.23169218 Ry

     total magnetization       =     8.00 Bohr mag/cell
     absolute magnetization    =     8.72 Bohr mag/cell

     iteration # 69     ecut=    48.00 Ry     beta= 0.50
     Davidson diagonalization with overlap
     ethr =  2.50E-05,  avg # of iterations =  1.0

     negative rho (up, down):  1.259E-02 4.787E-03

     total cpu time spent up to now is      633.2 secs

     total energy              =    -495.71339509 Ry
     estimated scf accuracy    <       0.23498602 Ry

     total magnetization       =     8.00 Bohr mag/cell
     absolute magnetization    =     8.72 Bohr mag/cell

     iteration # 70     ecut=    48.00 Ry     beta= 0.50
     Davidson diagonalization with overlap
     ethr =  2.50E-05,  avg # of iterations =  1.0

     negative rho (up, down):  1.203E-02 4.791E-03

     total cpu time spent up to now is      640.9 secs

     total energy              =    -495.71201340 Ry
     estimated scf accuracy    <       0.23530249 Ry

     total magnetization       =     8.00 Bohr mag/cell
     absolute magnetization    =     8.72 Bohr mag/cell

     iteration # 71     ecut=    48.00 Ry     beta= 0.50
     Davidson diagonalization with overlap
     ethr =  2.50E-05,  avg # of iterations =  1.0

     negative rho (up, down):  1.225E-02 4.789E-03

     total cpu time spent up to now is      648.8 secs

     total energy              =    -495.71244263 Ry
     estimated scf accuracy    <       0.22732564 Ry

     total magnetization       =     8.00 Bohr mag/cell
     absolute magnetization    =     8.72 Bohr mag/cell

     iteration # 72     ecut=    48.00 Ry     beta= 0.50
     Davidson diagonalization with overlap
     ethr =  2.50E-05,  avg # of iterations =  1.0

     negative rho (up, down):  1.254E-02 4.803E-03

     total cpu time spent up to now is      655.6 secs

     total energy              =    -495.71430306 Ry
     estimated scf accuracy    <       0.22811526 Ry

     total magnetization       =     8.00 Bohr mag/cell
     absolute magnetization    =     8.72 Bohr mag/cell

     iteration # 73     ecut=    48.00 Ry     beta= 0.50
     Davidson diagonalization with overlap
     ethr =  2.50E-05,  avg # of iterations =  1.0

     negative rho (up, down):  7.580E-03 9.184E-03

     total cpu time spent up to now is      662.4 secs

     total energy              =    -495.63416575 Ry
     estimated scf accuracy    <       0.23485471 Ry

     total magnetization       =     8.00 Bohr mag/cell
     absolute magnetization    =     8.72 Bohr mag/cell

     iteration # 74     ecut=    48.00 Ry     beta= 0.50
     Davidson diagonalization with overlap
     c_bands:  1 eigenvalues not converged
     c_bands:  1 eigenvalues not converged
     ethr =  2.50E-05,  avg # of iterations = 14.8

     negative rho (up, down):  8.528E-03 1.043E-02

     total cpu time spent up to now is      679.5 secs

     total energy              =    -496.01148468 Ry
     estimated scf accuracy    <       1.91063600 Ry

     total magnetization       =     8.00 Bohr mag/cell
     absolute magnetization    =     8.16 Bohr mag/cell

     iteration # 75     ecut=    48.00 Ry     beta= 0.50
     Davidson diagonalization with overlap
     ethr =  2.50E-05,  avg # of iterations = 10.1

     negative rho (up, down):  8.338E-03 9.706E-03

     total cpu time spent up to now is      692.3 secs

     total energy              =    -496.12276396 Ry
     estimated scf accuracy    <      31.67179688 Ry

     total magnetization       =    -0.00 Bohr mag/cell
     absolute magnetization    =     0.88 Bohr mag/cell

     iteration # 76     ecut=    48.00 Ry     beta= 0.50
     Davidson diagonalization with overlap
     ethr =  2.50E-05,  avg # of iterations =  2.4

     negative rho (up, down):  7.862E-03 1.012E-02

     total cpu time spent up to now is      701.0 secs

     total energy              =    -495.91829931 Ry
     estimated scf accuracy    <      25.04194855 Ry

     total magnetization       =     1.78 Bohr mag/cell
     absolute magnetization    =     2.10 Bohr mag/cell

     iteration # 77     ecut=    48.00 Ry     beta= 0.50
     Davidson diagonalization with overlap
     ethr =  2.50E-05,  avg # of iterations =  6.6

     negative rho (up, down):  9.847E-03 1.056E-02

     total cpu time spent up to now is      723.3 secs

     total energy              =    -495.79622628 Ry
     estimated scf accuracy    <       7.65921090 Ry

     total magnetization       =     6.00 Bohr mag/cell
     absolute magnetization    =     6.15 Bohr mag/cell

     iteration # 78     ecut=    48.00 Ry     beta= 0.50
     Davidson diagonalization with overlap
     ethr =  2.50E-05,  avg # of iterations =  7.3

     negative rho (up, down):  1.187E-02 9.356E-03

     total cpu time spent up to now is      738.6 secs

     total energy              =    -495.76732165 Ry
     estimated scf accuracy    <       2.18182088 Ry

     total magnetization       =     8.00 Bohr mag/cell
     absolute magnetization    =     8.11 Bohr mag/cell

     iteration # 79     ecut=    48.00 Ry     beta= 0.50
     Davidson diagonalization with overlap
     ethr =  2.50E-05,  avg # of iterations =  9.1

     negative rho (up, down):  1.250E-02 7.008E-03

     total cpu time spent up to now is      762.1 secs

     total energy              =    -495.74367867 Ry
     estimated scf accuracy    <       1.22594597 Ry

     total magnetization       =     8.00 Bohr mag/cell
     absolute magnetization    =     8.28 Bohr mag/cell

     iteration # 80     ecut=    48.00 Ry     beta= 0.50
     Davidson diagonalization with overlap
     ethr =  2.50E-05,  avg # of iterations =  7.2

     negative rho (up, down):  1.359E-02 6.828E-03

     total cpu time spent up to now is      784.8 secs

     total energy              =    -495.73169094 Ry
     estimated scf accuracy    <       0.69628281 Ry

     total magnetization       =     8.00 Bohr mag/cell
     absolute magnetization    =     8.52 Bohr mag/cell

     iteration # 81     ecut=    48.00 Ry     beta= 0.50
     Davidson diagonalization with overlap
     ethr =  2.50E-05,  avg # of iterations =  3.6

     negative rho (up, down):  1.189E-02 9.576E-03

     total cpu time spent up to now is      802.7 secs

     total energy              =    -495.70517611 Ry
     estimated scf accuracy    <       1.05189503 Ry

     total magnetization       =     8.00 Bohr mag/cell
     absolute magnetization    =     8.29 Bohr mag/cell

     iteration # 82     ecut=    48.00 Ry     beta= 0.50
     Davidson diagonalization with overlap
     ethr =  2.50E-05,  avg # of iterations =  9.6

     negative rho (up, down):  2.668E-02 4.446E-02

     total cpu time spent up to now is      831.9 secs

     total energy              =    -495.70734134 Ry
     estimated scf accuracy    <       0.47363315 Ry

     total magnetization       =     8.00 Bohr mag/cell
     absolute magnetization    =     8.70 Bohr mag/cell

     iteration # 83     ecut=    48.00 Ry     beta= 0.50
     Davidson diagonalization with overlap
     c_bands:  1 eigenvalues not converged
     c_bands:  1 eigenvalues not converged
     c_bands:  1 eigenvalues not converged
     c_bands:  1 eigenvalues not converged
     c_bands:  2 eigenvalues not converged
     ethr =  2.50E-05,  avg # of iterations = 13.4

     negative rho (up, down):  2.520E-02 2.907E-02

     total cpu time spent up to now is      856.0 secs

     total energy              =    -495.72566904 Ry
     estimated scf accuracy    <       0.66126010 Ry

     total magnetization       =     8.00 Bohr mag/cell
     absolute magnetization    =     8.93 Bohr mag/cell

     iteration # 84     ecut=    48.00 Ry     beta= 0.50
     Davidson diagonalization with overlap
     ethr =  2.50E-05,  avg # of iterations =  3.8

     negative rho (up, down):  9.581E-03 6.350E-03

     total cpu time spent up to now is      868.6 secs

     total energy              =    -495.70970630 Ry
     estimated scf accuracy    <       0.63438132 Ry

     total magnetization       =     8.00 Bohr mag/cell
     absolute magnetization    =     8.89 Bohr mag/cell

     iteration # 85     ecut=    48.00 Ry     beta= 0.50
     Davidson diagonalization with overlap
     ethr =  2.50E-05,  avg # of iterations =  7.8

     negative rho (up, down):  6.827E-03 5.927E-03

     total cpu time spent up to now is      910.8 secs

     total energy              =    -495.68503915 Ry
     estimated scf accuracy    <       0.43183946 Ry

     total magnetization       =     8.00 Bohr mag/cell
     absolute magnetization    =     8.77 Bohr mag/cell

     iteration # 86     ecut=    48.00 Ry     beta= 0.50
     Davidson diagonalization with overlap
     c_bands:  3 eigenvalues not converged
     c_bands:  4 eigenvalues not converged
     c_bands:  1 eigenvalues not converged
     c_bands:  1 eigenvalues not converged
     ethr =  2.50E-05,  avg # of iterations = 12.3

     negative rho (up, down):  7.190E-03 5.722E-03

     total cpu time spent up to now is      954.5 secs

     total energy              =    -495.60236680 Ry
     estimated scf accuracy    <       0.28963216 Ry

     total magnetization       =     8.00 Bohr mag/cell
     absolute magnetization    =     8.77 Bohr mag/cell

     iteration # 87     ecut=    48.00 Ry     beta= 0.50
     Davidson diagonalization with overlap
     c_bands:  1 eigenvalues not converged
     c_bands:  1 eigenvalues not converged
     c_bands:  1 eigenvalues not converged
     c_bands:  2 eigenvalues not converged
     c_bands:  1 eigenvalues not converged
     c_bands:  1 eigenvalues not converged
     c_bands:  2 eigenvalues not converged
     ethr =  2.50E-05,  avg # of iterations = 16.6

     negative rho (up, down):  6.368E-03 5.731E-03

     total cpu time spent up to now is     1006.4 secs

     total energy              =    -495.65254801 Ry
     estimated scf accuracy    <       3.53261070 Ry

     total magnetization       =     8.00 Bohr mag/cell
     absolute magnetization    =     8.03 Bohr mag/cell

     iteration # 88     ecut=    48.00 Ry     beta= 0.50
     Davidson diagonalization with overlap
     c_bands:  2 eigenvalues not converged
     ethr =  2.50E-05,  avg # of iterations = 15.8

     negative rho (up, down):  8.060E-03 5.119E-03

     total cpu time spent up to now is     1030.1 secs

     total energy              =    -495.72550840 Ry
     estimated scf accuracy    <       0.51367556 Ry

     total magnetization       =     8.00 Bohr mag/cell
     absolute magnetization    =     8.65 Bohr mag/cell

     iteration # 89     ecut=    48.00 Ry     beta= 0.50
     Davidson diagonalization with overlap
     ethr =  2.50E-05,  avg # of iterations =  1.9

     negative rho (up, down):  7.388E-03 5.100E-03

     total cpu time spent up to now is     1038.6 secs

     total energy              =    -495.69477404 Ry
     estimated scf accuracy    <       0.49167159 Ry

     total magnetization       =     8.00 Bohr mag/cell
     absolute magnetization    =     8.66 Bohr mag/cell

     iteration # 90     ecut=    48.00 Ry     beta= 0.50
     Davidson diagonalization with overlap
     c_bands:  3 eigenvalues not converged
     c_bands:  1 eigenvalues not converged
     c_bands:  2 eigenvalues not converged
     c_bands:  2 eigenvalues not converged
     ethr =  2.50E-05,  avg # of iterations = 13.2

     negative rho (up, down):  1.070E-02 4.895E-03

     total cpu time spent up to now is     1055.2 secs

     total energy              =    -495.72071457 Ry
     estimated scf accuracy    <       0.30234772 Ry

     total magnetization       =     8.00 Bohr mag/cell
     absolute magnetization    =     8.85 Bohr mag/cell

     iteration # 91     ecut=    48.00 Ry     beta= 0.50
     Davidson diagonalization with overlap
     ethr =  2.50E-05,  avg # of iterations =  2.0

     negative rho (up, down):  6.234E-03 5.451E-03

     total cpu time spent up to now is     1066.7 secs

     total energy              =    -495.68575217 Ry
     estimated scf accuracy    <       0.26501863 Ry

     total magnetization       =     8.00 Bohr mag/cell
     absolute magnetization    =     8.84 Bohr mag/cell

     iteration # 92     ecut=    48.00 Ry     beta= 0.50
     Davidson diagonalization with overlap
     c_bands:  1 eigenvalues not converged
     c_bands:  2 eigenvalues not converged
     ethr =  2.50E-05,  avg # of iterations = 15.6

     negative rho (up, down):  7.080E-03 5.013E-03

     total cpu time spent up to now is     1090.6 secs

     total energy              =    -495.73247308 Ry
     estimated scf accuracy    <       0.52834292 Ry

     total magnetization       =     8.00 Bohr mag/cell
     absolute magnetization    =     8.64 Bohr mag/cell

     iteration # 93     ecut=    48.00 Ry     beta= 0.50
     Davidson diagonalization with overlap
     ethr =  2.50E-05,  avg # of iterations =  1.4

     negative rho (up, down):  1.206E-02 4.915E-03

     total cpu time spent up to now is     1100.3 secs

     total energy              =    -495.73893856 Ry
     estimated scf accuracy    <       0.49939255 Ry

     total magnetization       =     8.00 Bohr mag/cell
     absolute magnetization    =     8.66 Bohr mag/cell

     iteration # 94     ecut=    48.00 Ry     beta= 0.50
     Davidson diagonalization with overlap
     ethr =  2.50E-05,  avg # of iterations =  4.0

     negative rho (up, down):  1.376E-02 4.927E-03

     total cpu time spent up to now is     1110.6 secs

     total energy              =    -495.74027981 Ry
     estimated scf accuracy    <       0.50953101 Ry

     total magnetization       =     8.00 Bohr mag/cell
     absolute magnetization    =     8.68 Bohr mag/cell

     iteration # 95     ecut=    48.00 Ry     beta= 0.50
     Davidson diagonalization with overlap
     ethr =  2.50E-05,  avg # of iterations =  1.0

     negative rho (up, down):  1.716E-02 5.961E-03

     total cpu time spent up to now is     1119.2 secs

     total energy              =    -495.75947054 Ry
     estimated scf accuracy    <       0.51092382 Ry

     total magnetization       =     8.00 Bohr mag/cell
     absolute magnetization    =     8.68 Bohr mag/cell

     iteration # 96     ecut=    48.00 Ry     beta= 0.50
     Davidson diagonalization with overlap
     c_bands:  1 eigenvalues not converged
     c_bands:  1 eigenvalues not converged
     c_bands:  1 eigenvalues not converged
     c_bands:  1 eigenvalues not converged
     c_bands:  1 eigenvalues not converged
     c_bands:  1 eigenvalues not converged
     c_bands:  1 eigenvalues not converged
     c_bands:  1 eigenvalues not converged
     ethr =  2.50E-05,  avg # of iterations = 16.1

     negative rho (up, down):  1.287E-02 5.324E-03

     total cpu time spent up to now is     1138.1 secs

     total energy              =    -495.72023289 Ry
     estimated scf accuracy    <       1.49915363 Ry

     total magnetization       =     8.00 Bohr mag/cell
     absolute magnetization    =     8.17 Bohr mag/cell

     iteration # 97     ecut=    48.00 Ry     beta= 0.50
     Davidson diagonalization with overlap
     ethr =  2.50E-05,  avg # of iterations = 10.8

     negative rho (up, down):  1.298E-02 5.212E-03

     total cpu time spent up to now is     1154.0 secs

     total energy              =    -495.73213342 Ry
     estimated scf accuracy    <       0.56809358 Ry

     total magnetization       =     8.00 Bohr mag/cell
     absolute magnetization    =     8.57 Bohr mag/cell

     iteration # 98     ecut=    48.00 Ry     beta= 0.50
     Davidson diagonalization with overlap
     ethr =  2.50E-05,  avg # of iterations =  9.3

     negative rho (up, down):  1.238E-02 5.093E-03

     total cpu time spent up to now is     1168.9 secs

     total energy              =    -495.73598938 Ry
     estimated scf accuracy    <       0.46961644 Ry

     total magnetization       =     8.00 Bohr mag/cell
     absolute magnetization    =     8.66 Bohr mag/cell

     iteration # 99     ecut=    48.00 Ry     beta= 0.50
     Davidson diagonalization with overlap
     ethr =  2.50E-05,  avg # of iterations =  2.9

     negative rho (up, down):  1.166E-02 5.197E-03

     total cpu time spent up to now is     1178.6 secs

     total energy              =    -495.73429932 Ry
     estimated scf accuracy    <       0.44565595 Ry

     total magnetization       =     8.00 Bohr mag/cell
     absolute magnetization    =     8.68 Bohr mag/cell

     iteration #100     ecut=    48.00 Ry     beta= 0.50
     Davidson diagonalization with overlap
     ethr =  2.50E-05,  avg # of iterations =  6.1

     negative rho (up, down):  5.543E-02 8.725E-03

     total cpu time spent up to now is     1190.3 secs

     total energy              =    -495.69070433 Ry
     estimated scf accuracy    <       0.39607475 Ry

     total magnetization       =     8.00 Bohr mag/cell
     absolute magnetization    =     8.72 Bohr mag/cell

     iteration #101     ecut=    48.00 Ry     beta= 0.50
     Davidson diagonalization with overlap
     c_bands:  4 eigenvalues not converged
     c_bands:  2 eigenvalues not converged
     c_bands:  2 eigenvalues not converged
     c_bands:  2 eigenvalues not converged
     c_bands:  3 eigenvalues not converged
     c_bands:  3 eigenvalues not converged
     ethr =  2.50E-05,  avg # of iterations = 18.8

     negative rho (up, down):  5.495E-02 7.645E-03

     total cpu time spent up to now is     1214.2 secs

     total energy              =    -495.76527613 Ry
     estimated scf accuracy    <       0.47556860 Ry

     total magnetization       =     8.00 Bohr mag/cell
     absolute magnetization    =     8.64 Bohr mag/cell

     iteration #102     ecut=    48.00 Ry     beta= 0.50
     Davidson diagonalization with overlap
     ethr =  2.50E-05,  avg # of iterations =  2.7

     negative rho (up, down):  5.542E-02 7.174E-03

     total cpu time spent up to now is     1221.7 secs

     total energy              =    -495.76933485 Ry
     estimated scf accuracy    <       0.45821610 Ry

     total magnetization       =     8.00 Bohr mag/cell
     absolute magnetization    =     8.66 Bohr mag/cell

     iteration #103     ecut=    48.00 Ry     beta= 0.50
     Davidson diagonalization with overlap
     ethr =  2.50E-05,  avg # of iterations =  1.8

     negative rho (up, down):  5.536E-02 7.702E-03

     total cpu time spent up to now is     1230.9 secs

     total energy              =    -495.75893013 Ry
     estimated scf accuracy    <       0.49072944 Ry

     total magnetization       =     8.00 Bohr mag/cell
     absolute magnetization    =     8.68 Bohr mag/cell

     iteration #104     ecut=    48.00 Ry     beta= 0.50
     Davidson diagonalization with overlap
     ethr =  2.50E-05,  avg # of iterations =  1.1

     negative rho (up, down):  5.746E-02 7.724E-03

     total cpu time spent up to now is     1239.6 secs

     total energy              =    -495.76250149 Ry
     estimated scf accuracy    <       0.44418386 Ry

     total magnetization       =     8.00 Bohr mag/cell
     absolute magnetization    =     8.65 Bohr mag/cell

     iteration #105     ecut=    48.00 Ry     beta= 0.50
     Davidson diagonalization with overlap
     ethr =  2.50E-05,  avg # of iterations =  1.0

     negative rho (up, down):  2.689E-02 7.169E-03

     total cpu time spent up to now is     1246.8 secs

     total energy              =    -495.67597806 Ry
     estimated scf accuracy    <       0.45352910 Ry

     total magnetization       =     8.00 Bohr mag/cell
     absolute magnetization    =     8.65 Bohr mag/cell

     iteration #106     ecut=    48.00 Ry     beta= 0.50
     Davidson diagonalization with overlap
     c_bands:  1 eigenvalues not converged
     c_bands:  2 eigenvalues not converged
     c_bands:  2 eigenvalues not converged
     c_bands:  4 eigenvalues not converged
     c_bands:  1 eigenvalues not converged
     c_bands:  2 eigenvalues not converged
     c_bands:  2 eigenvalues not converged
     c_bands:  1 eigenvalues not converged
     ethr =  2.50E-05,  avg # of iterations = 17.2

     negative rho (up, down):  9.961E-03 8.406E-03

     total cpu time spent up to now is     1266.7 secs

     total energy              =    -495.61693739 Ry
     estimated scf accuracy    <       2.59684779 Ry

     total magnetization       =     8.00 Bohr mag/cell
     absolute magnetization    =     8.09 Bohr mag/cell

     iteration #107     ecut=    48.00 Ry     beta= 0.50
     Davidson diagonalization with overlap
     c_bands:  1 eigenvalues not converged
     c_bands:  2 eigenvalues not converged
     c_bands:  2 eigenvalues not converged
     ethr =  2.50E-05,  avg # of iterations = 14.4

     negative rho (up, down):  8.275E-03 5.232E-03

     total cpu time spent up to now is     1283.1 secs

     total energy              =    -495.74862499 Ry
     estimated scf accuracy    <       0.43118683 Ry

     total magnetization       =     8.00 Bohr mag/cell
     absolute magnetization    =     8.64 Bohr mag/cell

     iteration #108     ecut=    48.00 Ry     beta= 0.50
     Davidson diagonalization with overlap
     ethr =  2.50E-05,  avg # of iterations =  6.8

     negative rho (up, down):  8.959E-03 5.213E-03

     total cpu time spent up to now is     1292.4 secs

     total energy              =    -495.78475812 Ry
     estimated scf accuracy    <       0.61517063 Ry

     total magnetization       =     8.00 Bohr mag/cell
     absolute magnetization    =     8.57 Bohr mag/cell

     iteration #109     ecut=    48.00 Ry     beta= 0.50
     Davidson diagonalization with overlap
     ethr =  2.50E-05,  avg # of iterations =  6.8

     negative rho (up, down):  9.175E-03 5.886E-03

     total cpu time spent up to now is     1304.2 secs

     total energy              =    -495.81773269 Ry
     estimated scf accuracy    <       0.84924896 Ry

     total magnetization       =     8.00 Bohr mag/cell
     absolute magnetization    =     8.48 Bohr mag/cell

     iteration #110     ecut=    48.00 Ry     beta= 0.50
     Davidson diagonalization with overlap
     ethr =  2.50E-05,  avg # of iterations =  7.1

     negative rho (up, down):  8.847E-03 6.929E-03

     total cpu time spent up to now is     1314.6 secs

     total energy              =    -495.76349184 Ry
     estimated scf accuracy    <       2.31213587 Ry

     total magnetization       =     8.00 Bohr mag/cell
     absolute magnetization    =     8.09 Bohr mag/cell

     iteration #111     ecut=    48.00 Ry     beta= 0.50
     Davidson diagonalization with overlap
     ethr =  2.50E-05,  avg # of iterations =  4.3

     negative rho (up, down):  9.787E-03 5.828E-03

     total cpu time spent up to now is     1323.3 secs

     total energy              =    -495.77596727 Ry
     estimated scf accuracy    <       0.69289235 Ry

     total magnetization       =     8.00 Bohr mag/cell
     absolute magnetization    =     8.70 Bohr mag/cell

     iteration #112     ecut=    48.00 Ry     beta= 0.50
     Davidson diagonalization with overlap
     ethr =  2.50E-05,  avg # of iterations =  3.8

     negative rho (up, down):  6.928E-03 5.636E-03

     total cpu time spent up to now is     1332.1 secs

     total energy              =    -495.70563491 Ry
     estimated scf accuracy    <       0.63783740 Ry

     total magnetization       =     8.00 Bohr mag/cell
     absolute magnetization    =     8.72 Bohr mag/cell

     iteration #113     ecut=    48.00 Ry     beta= 0.50
     Davidson diagonalization with overlap
     c_bands:  1 eigenvalues not converged
     c_bands:  1 eigenvalues not converged
     c_bands:  2 eigenvalues not converged
     c_bands:  3 eigenvalues not converged
     ethr =  2.50E-05,  avg # of iterations = 15.9

     negative rho (up, down):  7.247E-03 5.155E-03

     total cpu time spent up to now is     1351.4 secs

     total energy              =    -495.72055429 Ry
     estimated scf accuracy    <       0.18420963 Ry

     total magnetization       =     8.00 Bohr mag/cell
     absolute magnetization    =     9.08 Bohr mag/cell

     iteration #114     ecut=    48.00 Ry     beta= 0.50
     Davidson diagonalization with overlap
     ethr =  2.50E-05,  avg # of iterations =  5.3

     negative rho (up, down):  1.375E-02 5.612E-03

     total cpu time spent up to now is     1363.1 secs

     total energy              =    -495.66476801 Ry
     estimated scf accuracy    <       0.21113185 Ry

     total magnetization       =     8.00 Bohr mag/cell
     absolute magnetization    =     8.94 Bohr mag/cell

     iteration #115     ecut=    48.00 Ry     beta= 0.50
     Davidson diagonalization with overlap
     c_bands:  1 eigenvalues not converged
     c_bands:  1 eigenvalues not converged
     c_bands:  3 eigenvalues not converged
     c_bands:  1 eigenvalues not converged
     c_bands:  2 eigenvalues not converged
     c_bands:  1 eigenvalues not converged
     c_bands:  4 eigenvalues not converged
     c_bands:  2 eigenvalues not converged
     c_bands:  2 eigenvalues not converged
     ethr =  2.50E-05,  avg # of iterations = 18.2

     negative rho (up, down):  1.341E-02 6.293E-03

     total cpu time spent up to now is     1386.0 secs

     total energy              =    -495.71201197 Ry
     estimated scf accuracy    <       0.69596273 Ry

     total magnetization       =     8.00 Bohr mag/cell
     absolute magnetization    =     8.37 Bohr mag/cell

     iteration #116     ecut=    48.00 Ry     beta= 0.50
     Davidson diagonalization with overlap
     ethr =  2.50E-05,  avg # of iterations =  4.6

     negative rho (up, down):  9.874E-03 6.701E-03

     total cpu time spent up to now is     1396.9 secs

     total energy              =    -495.70900934 Ry
     estimated scf accuracy    <       0.35817535 Ry

     total magnetization       =     8.00 Bohr mag/cell
     absolute magnetization    =     8.60 Bohr mag/cell

     iteration #117     ecut=    48.00 Ry     beta= 0.50
     Davidson diagonalization with overlap
     ethr =  2.50E-05,  avg # of iterations =  6.3

     negative rho (up, down):  7.706E-03 6.432E-03

     total cpu time spent up to now is     1410.0 secs

     total energy              =    -495.70194054 Ry
     estimated scf accuracy    <       0.21428909 Ry

     total magnetization       =     8.00 Bohr mag/cell
     absolute magnetization    =     8.72 Bohr mag/cell

     iteration #118     ecut=    48.00 Ry     beta= 0.50
     Davidson diagonalization with overlap
     c_bands:  1 eigenvalues not converged
     ethr =  2.50E-05,  avg # of iterations = 12.8

     negative rho (up, down):  7.130E-03 5.366E-03

     total cpu time spent up to now is     1427.8 secs

     total energy              =    -495.70928003 Ry
     estimated scf accuracy    <       0.03004859 Ry

     total magnetization       =     8.00 Bohr mag/cell
     absolute magnetization    =     8.96 Bohr mag/cell

     iteration #119     ecut=    48.00 Ry     beta= 0.50
     Davidson diagonalization with overlap
     ethr =  2.50E-05,  avg # of iterations =  6.1

     negative rho (up, down):  8.051E-03 5.509E-03

     total cpu time spent up to now is     1439.8 secs

     total energy              =    -495.71234383 Ry
     estimated scf accuracy    <       0.12766801 Ry

     total magnetization       =     8.00 Bohr mag/cell
     absolute magnetization    =     8.83 Bohr mag/cell

     iteration #120     ecut=    48.00 Ry     beta= 0.50
     Davidson diagonalization with overlap
     c_bands:  2 eigenvalues not converged
     c_bands:  2 eigenvalues not converged
     c_bands:  1 eigenvalues not converged
     c_bands:  1 eigenvalues not converged
     ethr =  2.50E-05,  avg # of iterations = 11.3

     negative rho (up, down):  8.904E-03 5.284E-03

     total cpu time spent up to now is     1455.4 secs

     total energy              =    -495.70963892 Ry
     estimated scf accuracy    <       0.15857305 Ry

     total magnetization       =     8.00 Bohr mag/cell
     absolute magnetization    =     8.75 Bohr mag/cell

     iteration #121     ecut=    48.00 Ry     beta= 0.50
     Davidson diagonalization with overlap
     ethr =  2.50E-05,  avg # of iterations =  3.3

     negative rho (up, down):  1.024E-02 5.135E-03

     total cpu time spent up to now is     1465.4 secs

     total energy              =    -495.70744910 Ry
     estimated scf accuracy    <       0.12726261 Ry

     total magnetization       =     8.00 Bohr mag/cell
     absolute magnetization    =     8.76 Bohr mag/cell

     iteration #122     ecut=    48.00 Ry     beta= 0.50
     Davidson diagonalization with overlap
     ethr =  2.50E-05,  avg # of iterations =  8.6

     negative rho (up, down):  8.214E-03 4.800E-03

     total cpu time spent up to now is     1476.1 secs

     total energy              =    -495.70926723 Ry
     estimated scf accuracy    <       0.03936877 Ry

     total magnetization       =     8.00 Bohr mag/cell
     absolute magnetization    =     8.75 Bohr mag/cell

     iteration #123     ecut=    48.00 Ry     beta= 0.50
     Davidson diagonalization with overlap
     ethr =  2.50E-05,  avg # of iterations =  6.7

     negative rho (up, down):  1.130E-02 4.829E-03

     total cpu time spent up to now is     1488.5 secs

     total energy              =    -495.71648380 Ry
     estimated scf accuracy    <       0.13934105 Ry

     total magnetization       =     8.00 Bohr mag/cell
     absolute magnetization    =     8.74 Bohr mag/cell

     iteration #124     ecut=    48.00 Ry     beta= 0.50
     Davidson diagonalization with overlap
     ethr =  2.50E-05,  avg # of iterations =  2.8

     negative rho (up, down):  1.505E-02 5.228E-03

     total cpu time spent up to now is     1498.9 secs

     total energy              =    -495.71512361 Ry
     estimated scf accuracy    <       0.14676725 Ry

     total magnetization       =     8.00 Bohr mag/cell
     absolute magnetization    =     8.74 Bohr mag/cell

     iteration #125     ecut=    48.00 Ry     beta= 0.50
     Davidson diagonalization with overlap
     ethr =  2.50E-05,  avg # of iterations =  6.4

     negative rho (up, down):  1.544E-02 5.063E-03

     total cpu time spent up to now is     1512.6 secs

     total energy              =    -495.72052554 Ry
     estimated scf accuracy    <       0.19369093 Ry

     total magnetization       =     8.00 Bohr mag/cell
     absolute magnetization    =     8.70 Bohr mag/cell

     iteration #126     ecut=    48.00 Ry     beta= 0.50
     Davidson diagonalization with overlap
     ethr =  2.50E-05,  avg # of iterations =  3.3

     negative rho (up, down):  1.040E-02 4.871E-03

     total cpu time spent up to now is     1521.5 secs

     total energy              =    -495.71441172 Ry
     estimated scf accuracy    <       0.22798919 Ry

     total magnetization       =     8.00 Bohr mag/cell
     absolute magnetization    =     8.67 Bohr mag/cell

     iteration #127     ecut=    48.00 Ry     beta= 0.50
     Davidson diagonalization with overlap
     ethr =  2.50E-05,  avg # of iterations =  5.1

     negative rho (up, down):  9.100E-03 5.164E-03

     total cpu time spent up to now is     1534.7 secs

     total energy              =    -495.70993209 Ry
     estimated scf accuracy    <       0.16949431 Ry

     total magnetization       =     8.00 Bohr mag/cell
     absolute magnetization    =     8.73 Bohr mag/cell

     iteration #128     ecut=    48.00 Ry     beta= 0.50
     Davidson diagonalization with overlap
     c_bands:  1 eigenvalues not converged
     c_bands:  1 eigenvalues not converged
     c_bands:  1 eigenvalues not converged
     c_bands:  2 eigenvalues not converged
     ethr =  2.50E-05,  avg # of iterations = 11.3

     negative rho (up, down):  8.071E-03 4.852E-03

     total cpu time spent up to now is     1549.1 secs

     total energy              =    -495.71561500 Ry
     estimated scf accuracy    <       0.09872734 Ry

     total magnetization       =     8.00 Bohr mag/cell
     absolute magnetization    =     8.75 Bohr mag/cell

     iteration #129     ecut=    48.00 Ry     beta= 0.50
     Davidson diagonalization with overlap
     ethr =  2.50E-05,  avg # of iterations =  1.5

     negative rho (up, down):  9.169E-03 4.822E-03

     total cpu time spent up to now is     1557.9 secs

     total energy              =    -495.71469128 Ry
     estimated scf accuracy    <       0.09583755 Ry

     total magnetization       =     8.00 Bohr mag/cell
     absolute magnetization    =     8.75 Bohr mag/cell

     iteration #130     ecut=    48.00 Ry     beta= 0.50
     Davidson diagonalization with overlap
     ethr =  2.50E-05,  avg # of iterations =  1.0

     negative rho (up, down):  1.017E-02 4.829E-03

     total cpu time spent up to now is     1566.4 secs

     total energy              =    -495.71349478 Ry
     estimated scf accuracy    <       0.08965281 Ry

     total magnetization       =     8.00 Bohr mag/cell
     absolute magnetization    =     8.75 Bohr mag/cell

     iteration #131     ecut=    48.00 Ry     beta= 0.50
     Davidson diagonalization with overlap
     ethr =  2.50E-05,  avg # of iterations =  1.0

     negative rho (up, down):  1.266E-02 6.315E-03

     total cpu time spent up to now is     1574.7 secs

     total energy              =    -495.68424741 Ry
     estimated scf accuracy    <       0.08424327 Ry

     total magnetization       =     8.00 Bohr mag/cell
     absolute magnetization    =     8.75 Bohr mag/cell

     iteration #132     ecut=    48.00 Ry     beta= 0.50
     Davidson diagonalization with overlap
     ethr =  2.50E-05,  avg # of iterations = 13.6

     negative rho (up, down):  7.777E-03 6.396E-03

     total cpu time spent up to now is     1594.8 secs

     total energy              =    -495.68616209 Ry
     estimated scf accuracy    <       1.43725582 Ry

     total magnetization       =     8.00 Bohr mag/cell
     absolute magnetization    =     8.24 Bohr mag/cell

     iteration #133     ecut=    48.00 Ry     beta= 0.50
     Davidson diagonalization with overlap
     ethr =  2.50E-05,  avg # of iterations =  8.8

     negative rho (up, down):  8.221E-03 5.478E-03

     total cpu time spent up to now is     1609.9 secs

     total energy              =    -495.72234598 Ry
     estimated scf accuracy    <       0.43623668 Ry

     total magnetization       =     8.00 Bohr mag/cell
     absolute magnetization    =     8.67 Bohr mag/cell

     iteration #134     ecut=    48.00 Ry     beta= 0.50
     Davidson diagonalization with overlap
     ethr =  2.50E-05,  avg # of iterations =  2.1

     negative rho (up, down):  8.151E-03 5.558E-03

     total cpu time spent up to now is     1619.2 secs

     total energy              =    -495.71024891 Ry
     estimated scf accuracy    <       0.39891546 Ry

     total magnetization       =     8.00 Bohr mag/cell
     absolute magnetization    =     8.68 Bohr mag/cell

     iteration #135     ecut=    48.00 Ry     beta= 0.50
     Davidson diagonalization with overlap
     c_bands:  2 eigenvalues not converged
     c_bands:  3 eigenvalues not converged
     ethr =  2.50E-05,  avg # of iterations = 10.7

     negative rho (up, down):  8.141E-03 5.600E-03

     total cpu time spent up to now is     1633.2 secs

     total energy              =    -495.70064007 Ry
     estimated scf accuracy    <       0.31085663 Ry

     total magnetization       =     8.00 Bohr mag/cell
     absolute magnetization    =     8.72 Bohr mag/cell

     iteration #136     ecut=    48.00 Ry     beta= 0.50
     Davidson diagonalization with overlap
     c_bands:  1 eigenvalues not converged
     c_bands:  5 eigenvalues not converged
     c_bands:  2 eigenvalues not converged
     c_bands:  2 eigenvalues not converged
     c_bands:  3 eigenvalues not converged
     c_bands:  3 eigenvalues not converged
     c_bands:  4 eigenvalues not converged
     ethr =  2.50E-05,  avg # of iterations =  9.9

     negative rho (up, down):  8.112E-03 5.259E-03

     total cpu time spent up to now is     1647.4 secs

     total energy              =    -495.70147331 Ry
     estimated scf accuracy    <       0.18177582 Ry

     total magnetization       =     8.00 Bohr mag/cell
     absolute magnetization    =     8.74 Bohr mag/cell

     iteration #137     ecut=    48.00 Ry     beta= 0.50
     Davidson diagonalization with overlap
     ethr =  2.50E-05,  avg # of iterations =  4.3

     negative rho (up, down):  7.064E-03 6.386E-03

     total cpu time spent up to now is     1658.8 secs

     total energy              =    -495.68658673 Ry
     estimated scf accuracy    <       0.17741461 Ry

     total magnetization       =     8.00 Bohr mag/cell
     absolute magnetization    =     8.74 Bohr mag/cell

[...]

     total magnetization       =     8.00 Bohr mag/cell
     absolute magnetization    =     8.28 Bohr mag/cell

     iteration #465     ecut=    48.00 Ry     beta= 0.50
     Davidson diagonalization with overlap
     ethr =  4.04E-06,  avg # of iterations =  7.8

     negative rho (up, down):  5.526E-03 4.670E-03

     total cpu time spent up to now is     3883.8 secs

     total energy              =    -495.70632655 Ry
     estimated scf accuracy    <       0.00548489 Ry

     total magnetization       =     8.00 Bohr mag/cell
     absolute magnetization    =     8.31 Bohr mag/cell

     iteration #466     ecut=    48.00 Ry     beta= 0.50
     Davidson diagonalization with overlap
     ethr =  4.04E-06,  avg # of iterations =  1.7

     negative rho (up, down):  4.943E-03 5.029E-03

     total cpu time spent up to now is     3888.8 secs

     total energy              =    -495.70649574 Ry
     estimated scf accuracy    <       0.00428348 Ry

     total magnetization       =     8.00 Bohr mag/cell
     absolute magnetization    =     8.30 Bohr mag/cell

     iteration #467     ecut=    48.00 Ry     beta= 0.50
     Davidson diagonalization with overlap
     ethr =  4.04E-06,  avg # of iterations =  9.1

     negative rho (up, down):  4.794E-03 4.910E-03

     total cpu time spent up to now is     3895.8 secs

     total energy              =    -495.70875159 Ry
     estimated scf accuracy    <       0.00304899 Ry

     total magnetization       =     8.00 Bohr mag/cell
     absolute magnetization    =     8.36 Bohr mag/cell

     iteration #468     ecut=    48.00 Ry     beta= 0.50
     Davidson diagonalization with overlap
     ethr =  4.04E-06,  avg # of iterations =  1.0

     negative rho (up, down):  4.711E-03 5.041E-03

     total cpu time spent up to now is     3900.6 secs

     total energy              =    -495.70932176 Ry
     estimated scf accuracy    <       0.00335966 Ry

     total magnetization       =     8.00 Bohr mag/cell
     absolute magnetization    =     8.36 Bohr mag/cell

     iteration #469     ecut=    48.00 Ry     beta= 0.50
     Davidson diagonalization with overlap
     ethr =  4.04E-06,  avg # of iterations =  4.7

     negative rho (up, down):  4.628E-03 5.341E-03

     total cpu time spent up to now is     3906.2 secs

     total energy              =    -495.70997914 Ry
     estimated scf accuracy    <       0.00206534 Ry

     total magnetization       =     8.00 Bohr mag/cell
     absolute magnetization    =     8.37 Bohr mag/cell

     iteration #470     ecut=    48.00 Ry     beta= 0.50
     Davidson diagonalization with overlap
     ethr =  4.04E-06,  avg # of iterations =  6.6

     negative rho (up, down):  4.731E-03 5.307E-03

     total cpu time spent up to now is     3912.6 secs

     total energy              =    -495.71054224 Ry
     estimated scf accuracy    <       0.00961616 Ry

     total magnetization       =     8.00 Bohr mag/cell
     absolute magnetization    =     8.38 Bohr mag/cell

     iteration #471     ecut=    48.00 Ry     beta= 0.50
     Davidson diagonalization with overlap
     ethr =  4.04E-06,  avg # of iterations =  1.0

     negative rho (up, down):  4.890E-03 5.276E-03

     total cpu time spent up to now is     3917.4 secs

     total energy              =    -495.71047890 Ry
     estimated scf accuracy    <       0.01026268 Ry

     total magnetization       =     8.00 Bohr mag/cell
     absolute magnetization    =     8.38 Bohr mag/cell

     iteration #472     ecut=    48.00 Ry     beta= 0.50
     Davidson diagonalization with overlap
     ethr =  4.04E-06,  avg # of iterations =  1.0

     negative rho (up, down):  4.946E-03 5.322E-03

     total cpu time spent up to now is     3922.2 secs

     total energy              =    -495.71083817 Ry
     estimated scf accuracy    <       0.01031584 Ry

     total magnetization       =     8.00 Bohr mag/cell
     absolute magnetization    =     8.38 Bohr mag/cell

     iteration #473     ecut=    48.00 Ry     beta= 0.50
     Davidson diagonalization with overlap
     ethr =  4.04E-06,  avg # of iterations =  1.9

     negative rho (up, down):  4.743E-03 6.685E-03

     total cpu time spent up to now is     3927.2 secs

     total energy              =    -495.71182320 Ry
     estimated scf accuracy    <       0.01591721 Ry

     total magnetization       =     8.00 Bohr mag/cell
     absolute magnetization    =     8.39 Bohr mag/cell

     iteration #474     ecut=    48.00 Ry     beta= 0.50
     Davidson diagonalization with overlap
     ethr =  4.04E-06,  avg # of iterations = 10.9

     negative rho (up, down):  1.052E-02 5.170E-03

     total cpu time spent up to now is     3934.2 secs

     total energy              =    -495.68808770 Ry
     estimated scf accuracy    <       0.06676719 Ry

     total magnetization       =     8.00 Bohr mag/cell
     absolute magnetization    =     8.43 Bohr mag/cell

     iteration #475     ecut=    48.00 Ry     beta= 0.50
     Davidson diagonalization with overlap
     c_bands:  1 eigenvalues not converged
     ethr =  4.04E-06,  avg # of iterations = 15.9

     negative rho (up, down):  8.174E-03 4.709E-03

     total cpu time spent up to now is     3943.9 secs

     total energy              =    -495.70600693 Ry
     estimated scf accuracy    <       0.04681460 Ry

     total magnetization       =     8.00 Bohr mag/cell
     absolute magnetization    =     8.30 Bohr mag/cell

     iteration #476     ecut=    48.00 Ry     beta= 0.50
     Davidson diagonalization with overlap
     ethr =  4.04E-06,  avg # of iterations =  3.4

     negative rho (up, down):  1.512E-02 4.743E-03

     total cpu time spent up to now is     3949.1 secs

     total energy              =    -495.70081847 Ry
     estimated scf accuracy    <       0.04324519 Ry

     total magnetization       =     8.00 Bohr mag/cell
     absolute magnetization    =     8.32 Bohr mag/cell

     iteration #477     ecut=    48.00 Ry     beta= 0.50
     Davidson diagonalization with overlap
     ethr =  4.04E-06,  avg # of iterations = 10.9

     negative rho (up, down):  9.063E-03 4.812E-03

     total cpu time spent up to now is     3957.2 secs

     total energy              =    -495.70725751 Ry
     estimated scf accuracy    <       0.21014835 Ry

     total magnetization       =     8.00 Bohr mag/cell
     absolute magnetization    =     8.59 Bohr mag/cell

     iteration #478     ecut=    48.00 Ry     beta= 0.50
     Davidson diagonalization with overlap
     ethr =  4.04E-06,  avg # of iterations =  6.4

     negative rho (up, down):  6.453E-03 6.469E-03

     total cpu time spent up to now is     3963.5 secs

     total energy              =    -495.70498575 Ry
     estimated scf accuracy    <       0.24456052 Ry

     total magnetization       =     8.00 Bohr mag/cell
     absolute magnetization    =     8.55 Bohr mag/cell

     iteration #479     ecut=    48.00 Ry     beta= 0.50
     Davidson diagonalization with overlap
     ethr =  4.04E-06,  avg # of iterations =  9.6

     negative rho (up, down):  5.993E-03 5.756E-03

     total cpu time spent up to now is     3971.2 secs

     total energy              =    -495.70993566 Ry
     estimated scf accuracy    <       0.09807368 Ry

     total magnetization       =     8.00 Bohr mag/cell
     absolute magnetization    =     8.28 Bohr mag/cell

     iteration #480     ecut=    48.00 Ry     beta= 0.50
     Davidson diagonalization with overlap
     ethr =  4.04E-06,  avg # of iterations =  1.1

     negative rho (up, down):  5.202E-03 6.059E-03

     total cpu time spent up to now is     3976.0 secs

     total energy              =    -495.70762685 Ry
     estimated scf accuracy    <       0.09701353 Ry

     total magnetization       =     8.00 Bohr mag/cell
     absolute magnetization    =     8.28 Bohr mag/cell

     iteration #481     ecut=    48.00 Ry     beta= 0.50
     Davidson diagonalization with overlap
     ethr =  4.04E-06,  avg # of iterations =  9.1

     negative rho (up, down):  4.725E-03 5.806E-03

     total cpu time spent up to now is     3983.0 secs

     total energy              =    -495.70622894 Ry
     estimated scf accuracy    <       0.03989922 Ry

     total magnetization       =     8.00 Bohr mag/cell
     absolute magnetization    =     8.28 Bohr mag/cell

     iteration #482     ecut=    48.00 Ry     beta= 0.50
     Davidson diagonalization with overlap
     ethr =  4.04E-06,  avg # of iterations =  6.7

     negative rho (up, down):  4.697E-03 5.200E-03

     total cpu time spent up to now is     3989.8 secs

     total energy              =    -495.70979630 Ry
     estimated scf accuracy    <       0.00080653 Ry

     total magnetization       =     8.00 Bohr mag/cell
     absolute magnetization    =     8.37 Bohr mag/cell

     iteration #483     ecut=    48.00 Ry     beta= 0.50
     Davidson diagonalization with overlap
     ethr =  2.88E-06,  avg # of iterations =  1.1

     negative rho (up, down):  4.622E-03 5.949E-03

     total cpu time spent up to now is     3994.6 secs

     total energy              =    -495.70969916 Ry
     estimated scf accuracy    <       0.00062342 Ry

     total magnetization       =     8.00 Bohr mag/cell
     absolute magnetization    =     8.37 Bohr mag/cell

     iteration #484     ecut=    48.00 Ry     beta= 0.50
     Davidson diagonalization with overlap
     ethr =  2.23E-06,  avg # of iterations = 11.8

     negative rho (up, down):  4.568E-03 8.867E-03

     total cpu time spent up to now is     4002.5 secs

     total energy              =    -495.71224634 Ry
     estimated scf accuracy    <       0.00875675 Ry

     total magnetization       =     8.00 Bohr mag/cell
     absolute magnetization    =     8.39 Bohr mag/cell

     iteration #485     ecut=    48.00 Ry     beta= 0.50
     Davidson diagonalization with overlap
     ethr =  2.23E-06,  avg # of iterations =  6.0

     negative rho (up, down):  4.700E-03 6.643E-03

     total cpu time spent up to now is     4008.5 secs

     total energy              =    -495.71093788 Ry
     estimated scf accuracy    <       0.02047792 Ry

     total magnetization       =     8.00 Bohr mag/cell
     absolute magnetization    =     8.41 Bohr mag/cell

     iteration #486     ecut=    48.00 Ry     beta= 0.50
     Davidson diagonalization with overlap
     ethr =  2.23E-06,  avg # of iterations =  5.8

     negative rho (up, down):  5.267E-03 5.109E-03

     total cpu time spent up to now is     4014.1 secs

     total energy              =    -495.70897453 Ry
     estimated scf accuracy    <       0.00966243 Ry

     total magnetization       =     8.00 Bohr mag/cell
     absolute magnetization    =     8.40 Bohr mag/cell

     iteration #487     ecut=    48.00 Ry     beta= 0.50
     Davidson diagonalization with overlap
     ethr =  2.23E-06,  avg # of iterations = 10.6

     negative rho (up, down):  4.969E-03 5.062E-03

     total cpu time spent up to now is     4021.4 secs

     total energy              =    -495.70986423 Ry
     estimated scf accuracy    <       0.00036344 Ry

     total magnetization       =     8.00 Bohr mag/cell
     absolute magnetization    =     8.38 Bohr mag/cell

     iteration #488     ecut=    48.00 Ry     beta= 0.50
     Davidson diagonalization with overlap
     ethr =  1.30E-06,  avg # of iterations =  1.2

     negative rho (up, down):  5.012E-03 5.002E-03

     total cpu time spent up to now is     4026.3 secs

     total energy              =    -495.70943194 Ry
     estimated scf accuracy    <       0.00058598 Ry

     total magnetization       =     8.00 Bohr mag/cell
     absolute magnetization    =     8.37 Bohr mag/cell

     iteration #489     ecut=    48.00 Ry     beta= 0.50
     Davidson diagonalization with overlap
     ethr =  1.30E-06,  avg # of iterations =  6.1

     negative rho (up, down):  4.759E-03 5.049E-03

     total cpu time spent up to now is     4032.3 secs

     total energy              =    -495.70976380 Ry
     estimated scf accuracy    <       0.00116307 Ry

     total magnetization       =     8.00 Bohr mag/cell
     absolute magnetization    =     8.37 Bohr mag/cell

     iteration #490     ecut=    48.00 Ry     beta= 0.50
     Davidson diagonalization with overlap
     ethr =  1.30E-06,  avg # of iterations =  1.9

     negative rho (up, down):  4.608E-03 5.262E-03

     total cpu time spent up to now is     4037.3 secs

     total energy              =    -495.70986997 Ry
     estimated scf accuracy    <       0.00065944 Ry

     total magnetization       =     8.00 Bohr mag/cell
     absolute magnetization    =     8.37 Bohr mag/cell

     iteration #491     ecut=    48.00 Ry     beta= 0.50
     Davidson diagonalization with overlap
     ethr =  1.30E-06,  avg # of iterations =  8.8

     negative rho (up, down):  4.615E-03 5.284E-03

     total cpu time spent up to now is     4044.0 secs

     total energy              =    -495.71011534 Ry
     estimated scf accuracy    <       0.00092804 Ry

     total magnetization       =     8.00 Bohr mag/cell
     absolute magnetization    =     8.38 Bohr mag/cell

     iteration #492     ecut=    48.00 Ry     beta= 0.50
     Davidson diagonalization with overlap
     ethr =  1.30E-06,  avg # of iterations =  1.0

     negative rho (up, down):  4.650E-03 5.306E-03

     total cpu time spent up to now is     4048.8 secs

     total energy              =    -495.71007126 Ry
     estimated scf accuracy    <       0.00084022 Ry

     total magnetization       =     8.00 Bohr mag/cell
     absolute magnetization    =     8.38 Bohr mag/cell

     iteration #493     ecut=    48.00 Ry     beta= 0.50
     Davidson diagonalization with overlap
     ethr =  1.30E-06,  avg # of iterations =  1.5

     negative rho (up, down):  4.676E-03 5.318E-03

     total cpu time spent up to now is     4053.7 secs

     total energy              =    -495.71006704 Ry
     estimated scf accuracy    <       0.00067518 Ry

     total magnetization       =     8.00 Bohr mag/cell
     absolute magnetization    =     8.38 Bohr mag/cell

     iteration #494     ecut=    48.00 Ry     beta= 0.50
     Davidson diagonalization with overlap
     ethr =  1.30E-06,  avg # of iterations =  1.0

     negative rho (up, down):  4.644E-03 5.318E-03

     total cpu time spent up to now is     4058.5 secs

     total energy              =    -495.71010129 Ry
     estimated scf accuracy    <       0.00067311 Ry

     total magnetization       =     8.00 Bohr mag/cell
     absolute magnetization    =     8.38 Bohr mag/cell

     iteration #495     ecut=    48.00 Ry     beta= 0.50
     Davidson diagonalization with overlap
     ethr =  1.30E-06,  avg # of iterations =  1.0

     negative rho (up, down):  4.634E-03 5.328E-03

     total cpu time spent up to now is     4063.3 secs

     total energy              =    -495.71011301 Ry
     estimated scf accuracy    <       0.00067503 Ry

     total magnetization       =     8.00 Bohr mag/cell
     absolute magnetization    =     8.38 Bohr mag/cell

     iteration #496     ecut=    48.00 Ry     beta= 0.50
     Davidson diagonalization with overlap
     ethr =  1.30E-06,  avg # of iterations =  1.0

     negative rho (up, down):  4.634E-03 5.314E-03

     total cpu time spent up to now is     4068.1 secs

     total energy              =    -495.71010862 Ry
     estimated scf accuracy    <       0.00065596 Ry

     total magnetization       =     8.00 Bohr mag/cell
     absolute magnetization    =     8.38 Bohr mag/cell

     iteration #497     ecut=    48.00 Ry     beta= 0.50
     Davidson diagonalization with overlap
     ethr =  1.30E-06,  avg # of iterations =  1.0

     negative rho (up, down):  4.629E-03 5.330E-03

     total cpu time spent up to now is     4072.9 secs

     total energy              =    -495.71011144 Ry
     estimated scf accuracy    <       0.00061396 Ry

     total magnetization       =     8.00 Bohr mag/cell
     absolute magnetization    =     8.38 Bohr mag/cell

     iteration #498     ecut=    48.00 Ry     beta= 0.50
     Davidson diagonalization with overlap
     ethr =  1.30E-06,  avg # of iterations =  1.0

     negative rho (up, down):  4.629E-03 5.482E-03

     total cpu time spent up to now is     4077.7 secs

     total energy              =    -495.70991325 Ry
     estimated scf accuracy    <       0.00057256 Ry

     total magnetization       =     8.00 Bohr mag/cell
     absolute magnetization    =     8.38 Bohr mag/cell

     iteration #499     ecut=    48.00 Ry     beta= 0.50
     Davidson diagonalization with overlap
     ethr =  1.30E-06,  avg # of iterations =  5.8

     negative rho (up, down):  4.595E-03 5.356E-03

     total cpu time spent up to now is     4083.7 secs

     total energy              =    -495.71004741 Ry
     estimated scf accuracy    <       0.00048989 Ry

     total magnetization       =     8.00 Bohr mag/cell
     absolute magnetization    =     8.37 Bohr mag/cell

     iteration #500     ecut=    48.00 Ry     beta= 0.50
     Davidson diagonalization with overlap
     ethr =  1.30E-06,  avg # of iterations =  2.7

     negative rho (up, down):  4.598E-03 5.335E-03

     total cpu time spent up to now is     4088.8 secs

     total energy              =    -495.71009258 Ry
     estimated scf accuracy    <       0.00002588 Ry

     total magnetization       =     8.00 Bohr mag/cell
     absolute magnetization    =     8.38 Bohr mag/cell

     End of self-consistent calculation

     convergence NOT achieved after 500 iterations: stopping

     Writing output data file ./mytmp/2Cr0.18.save/
 
     init_run     :      4.04s CPU      4.48s WALL (       1 calls)
     electrons    :   3294.70s CPU   4084.30s WALL (       1 calls)

     Called by init_run:
     wfcinit      :      0.82s CPU      0.88s WALL (       1 calls)
     potinit      :      0.82s CPU      0.88s WALL (       1 calls)
     hinit0       :      0.77s CPU      0.85s WALL (       1 calls)

     Called by electrons:
     c_bands      :   1880.01s CPU   2291.80s WALL (     500 calls)
     sum_band     :    834.65s CPU   1046.72s WALL (     500 calls)
     v_of_rho     :    173.17s CPU    212.50s WALL (     501 calls)
     newd         :    261.40s CPU    370.87s WALL (     501 calls)
     PAW_pot      :     77.34s CPU     84.57s WALL (     501 calls)
     mix_rho      :     45.42s CPU     51.60s WALL (     500 calls)

     Called by c_bands:
     init_us_2    :     15.27s CPU     16.15s WALL (   18018 calls)
     cegterg      :   1820.68s CPU   2229.06s WALL (    9002 calls)

     Called by *egterg:
     cdiaghg      :    218.53s CPU    312.38s WALL (   67597 calls)
     h_psi        :   1216.50s CPU   1473.35s WALL (   67615 calls)
     s_psi        :     22.52s CPU     23.50s WALL (   67615 calls)
     g_psi        :      3.37s CPU      3.72s WALL (   58595 calls)

     Called by h_psi:
     h_psi:calbec :     80.36s CPU     89.97s WALL (   67615 calls)
     vloc_psi     :   1098.00s CPU   1342.96s WALL (   67615 calls)
     add_vuspsi   :     32.15s CPU     34.05s WALL (   67615 calls)

     General routines
     calbec       :     94.67s CPU    107.28s WALL (   76615 calls)
     fft          :    156.23s CPU    198.26s WALL (   12523 calls)
     ffts         :      4.34s CPU      5.08s WALL (    2002 calls)
     fftw         :   1128.39s CPU   1408.14s WALL ( 1173908 calls)
     interpolate  :     15.87s CPU     18.64s WALL (    1002 calls)
     davcio       :      0.01s CPU      0.06s WALL (      36 calls)
 
     Parallel routines
     fft_scatt_xy :    161.19s CPU    170.61s WALL ( 1188433 calls)
     fft_scatt_yz :    649.58s CPU    933.98s WALL ( 1188433 calls)
 
     PWSCF        :  54m59.06s CPU      1h 8m WALL

 
   This run was terminated on:  20:17: 0  30Mar2021            

=------------------------------------------------------------------------------=
   JOB DONE.
=------------------------------------------------------------------------------=
