
     Program PWSCF v.6.7MaX starts on 30Mar2021 at 18:56:14 

     This program is part of the open-source Quantum ESPRESSO suite
     for quantum simulation of materials; please cite
         "P. Giannozzi et al., J. Phys.:Condens. Matter 21 395502 (2009);
         "P. Giannozzi et al., J. Phys.:Condens. Matter 29 465901 (2017);
          URL http://www.quantum-espresso.org", 
     in publications or presentations arising from this work. More details at
     http://www.quantum-espresso.org/quote

     Parallel version (MPI), running on    48 processors

     MPI processes distributed on     1 nodes
     R & G space division:  proc/nbgrp/npool/nimage =      48
     Reading input from 2Cr0.16.scf.in

     Current dimensions of program PWSCF are:
     Max number of different atomic species (ntypx) = 10
     Max number of k-points (npk) =  40000
     Max angular momentum in pseudopotentials (lmaxx) =  3
     file Cr.pbe-spn-kjpaw_psl.1.0.0.UPF: wavefunction(s)  3S 3P 3D renormalized
     file Cr.pbe-spn-kjpaw_psl.1.0.0.UPF: wavefunction(s)  3S 3P 3D renormalized

     --------------------------------------------
     Parameters for DFT-D3 Dispersion Correction:
     --------------------------------------------
       Reference C6 values for interpolation: 

         atom   Coordination number   C6
         Cr1        0.000          1381.48
         Cr1        1.827           571.38
         Cr1       10.619           306.69
         Cr2        0.000          1381.48
         Cr2        1.827           571.38
         Cr2       10.619           306.69

       Values used:

         atom   Coordination number  R0_AB[au]  C6      C8
         Cr1        0.205            3.252   1381.45 127492.37
         Cr2        0.205            3.252   1381.45 127492.37

         Molecular C6 ( Ry / a.u.^6 ) =      5525.81


     Subspace diagonalization in iterative solution of the eigenvalue problem:
     one sub-group per band group will be used
     scalapack distributed-memory algorithm (size of sub-group:  6*  6 procs)

 
     Parallelization info
     --------------------
     sticks:   dense  smooth     PW     G-vecs:    dense   smooth      PW
     Min         235      98     26                36277     9874    1408
     Max         236      99     27                36282     9883    1425
     Sum       11311    4741   1285              1741401   474235   68095
 


     bravais-lattice index     =            4
     lattice parameter (alat)  =      18.9275  a.u.
     unit-cell volume          =   10553.3021 (a.u.)^3
     number of atoms/cell      =            2
     number of atomic types    =            2
     number of electrons       =        28.00
     number of Kohn-Sham states=           18
     kinetic-energy cutoff     =      48.0000  Ry
     charge density cutoff     =     457.0000  Ry
     scf convergence threshold =      1.0E-07
     mixing beta               =       0.5000
     number of iterations used =            8  plain     mixing
     Exchange-correlation= SLA  PW   PBX  PBC
                           (   1   4   3   4   0   0   0)

     celldm(1)=  18.927497  celldm(2)=   0.000000  celldm(3)=   1.797125
     celldm(4)=   0.000000  celldm(5)=   0.000000  celldm(6)=   0.000000

     crystal axes: (cart. coord. in units of alat)
               a(1) = (   1.000000   0.000000   0.000000 )  
               a(2) = (  -0.500000   0.866025   0.000000 )  
               a(3) = (   0.000000   0.000000   1.797125 )  

     reciprocal axes: (cart. coord. in units 2 pi/alat)
               b(1) = (  1.000000  0.577350  0.000000 )  
               b(2) = (  0.000000  1.154701  0.000000 )  
               b(3) = (  0.000000  0.000000  0.556444 )  


     PseudoPot. # 1 for Cr read from file:
     /home/sf05/q-e-qe-6.7MaX-Release/pseudo/Cr.pbe-spn-kjpaw_psl.1.0.0.UPF
     MD5 check sum: 198f1a2427a48552563eee314eba32ba
     Pseudo is Projector augmented-wave + core cor, Zval = 14.0
     Generated using &quot;atomic&quot; code by A. Dal Corso  v.6.3
     Shape of augmentation charge: PSQ
     Using radial grid of 1183 points,  6 beta functions with: 
                l(1) =   0
                l(2) =   0
                l(3) =   1
                l(4) =   1
                l(5) =   2
                l(6) =   2
     Q(r) pseudized with 0 coefficients 


     PseudoPot. # 2 for Cr read from file:
     /home/sf05/q-e-qe-6.7MaX-Release/pseudo/Cr.pbe-spn-kjpaw_psl.1.0.0.UPF
     MD5 check sum: 198f1a2427a48552563eee314eba32ba
     Pseudo is Projector augmented-wave + core cor, Zval = 14.0
     Generated using &quot;atomic&quot; code by A. Dal Corso  v.6.3
     Shape of augmentation charge: PSQ
     Using radial grid of 1183 points,  6 beta functions with: 
                l(1) =   0
                l(2) =   0
                l(3) =   1
                l(4) =   1
                l(5) =   2
                l(6) =   2
     Q(r) pseudized with 0 coefficients 


     atomic species   valence    mass     pseudopotential
        Cr1           14.00    51.99610     Cr( 1.00)
        Cr2           14.00    51.99610     Cr( 1.00)

     Starting magnetic structure 
     atomic species   magnetization
        Cr1          1.000
        Cr2          1.000

      4 Sym. Ops. (no inversion) found ( 2 have fractional translation)



   Cartesian axes

     site n.     atom                  positions (alat units)
         1           Cr1 tau(   1) = (   0.4100000   0.4330127   0.8985623  )
         2           Cr2 tau(   2) = (   0.0900000   0.4330127   0.8985623  )

     number of k points=     9  Gaussian smearing, width (Ry)=  0.0000
                       cart. coord. in units 2pi/alat
        k(    1) = (   0.1666667   0.2886751   0.0000000), wk =   0.1481481
        k(    2) = (   0.1666667  -0.4811252   0.0000000), wk =   0.1481481
        k(    3) = (   0.1666667  -0.0962250   0.0000000), wk =   0.1481481
        k(    4) = (  -0.5000000  -0.8660254   0.0000000), wk =   0.0740741
        k(    5) = (   0.3333333   0.0000000   0.0000000), wk =   0.0740741
        k(    6) = (   0.5000000  -0.0962250   0.0000000), wk =   0.1481481
        k(    7) = (  -0.3333333  -0.3849002   0.0000000), wk =   0.1481481
        k(    8) = (  -0.0000000  -0.1924501   0.0000000), wk =   0.0740741
        k(    9) = (  -1.0000000   0.0000000   0.0000000), wk =   0.0370370

     Dense  grid:  1741401 G-vectors     FFT dimensions: ( 144, 135, 240)

     Smooth grid:   474235 G-vectors     FFT dimensions: (  90,  90, 160)

     Estimated max dynamical RAM per process >     152.07 MB

     Estimated total dynamical RAM >       7.13 GB
     Generating pointlists ...
     new r_m :   0.1320 (alat units)  2.4984 (a.u.) for type    1
     new r_m :   0.1320 (alat units)  2.4984 (a.u.) for type    2

     Initial potential from superposition of free atoms

     starting charge   27.99845, renormalised to   28.00000

     negative rho (up, down):  1.082E-02 3.765E-17
     Starting wfcs are   20 randomized atomic wfcs
     Checking if some PAW data can be deallocated... 

     total cpu time spent up to now is        4.7 secs

     Self-consistent Calculation

     iteration #  1     ecut=    48.00 Ry     beta= 0.50
     Davidson diagonalization with overlap
     ethr =  1.00E-02,  avg # of iterations =  7.3

     negative rho (up, down):  7.979E-03 0.000E+00

     total cpu time spent up to now is       12.4 secs

     total energy              =    -494.14551637 Ry
     estimated scf accuracy    <       4.69726203 Ry

     total magnetization       =     8.00 Bohr mag/cell
     absolute magnetization    =    10.73 Bohr mag/cell

     iteration #  2     ecut=    48.00 Ry     beta= 0.50
     Davidson diagonalization with overlap
     ethr =  1.00E-02,  avg # of iterations =  4.2

     negative rho (up, down):  7.738E-03 1.843E-05

     total cpu time spent up to now is       18.1 secs

     total energy              =    -495.34235452 Ry
     estimated scf accuracy    <       1.85181007 Ry

     total magnetization       =     8.00 Bohr mag/cell
     absolute magnetization    =     9.01 Bohr mag/cell

     iteration #  3     ecut=    48.00 Ry     beta= 0.50
     Davidson diagonalization with overlap
     ethr =  6.61E-03,  avg # of iterations =  1.0

     negative rho (up, down):  3.459E-02 2.377E-02

     total cpu time spent up to now is       22.9 secs

     total energy              =    -495.70107910 Ry
     estimated scf accuracy    <       0.38475450 Ry

     total magnetization       =     8.00 Bohr mag/cell
     absolute magnetization    =     8.94 Bohr mag/cell

     iteration #  4     ecut=    48.00 Ry     beta= 0.50
     Davidson diagonalization with overlap
     ethr =  1.37E-03,  avg # of iterations =  6.2

     negative rho (up, down):  1.748E-02 1.183E-02

     total cpu time spent up to now is       29.2 secs

     total energy              =    -495.72631243 Ry
     estimated scf accuracy    <       0.04259182 Ry

     total magnetization       =     8.00 Bohr mag/cell
     absolute magnetization    =     8.90 Bohr mag/cell

     iteration #  5     ecut=    48.00 Ry     beta= 0.50
     Davidson diagonalization with overlap
     c_bands:  2 eigenvalues not converged
     c_bands:  2 eigenvalues not converged
     ethr =  1.52E-04,  avg # of iterations =  8.0

     negative rho (up, down):  9.203E-03 7.420E-03

     total cpu time spent up to now is       36.4 secs

     total energy              =    -495.73490931 Ry
     estimated scf accuracy    <       0.00352227 Ry

     total magnetization       =     8.00 Bohr mag/cell
     absolute magnetization    =     8.83 Bohr mag/cell

     iteration #  6     ecut=    48.00 Ry     beta= 0.50
     Davidson diagonalization with overlap
     c_bands:  2 eigenvalues not converged
     c_bands:  4 eigenvalues not converged
     c_bands:  1 eigenvalues not converged
     ethr =  1.26E-05,  avg # of iterations =  9.2

     negative rho (up, down):  6.519E-03 5.560E-03

     total cpu time spent up to now is       44.0 secs

     total energy              =    -495.73683448 Ry
     estimated scf accuracy    <       0.00030553 Ry

     total magnetization       =     8.00 Bohr mag/cell
     absolute magnetization    =     8.79 Bohr mag/cell

     iteration #  7     ecut=    48.00 Ry     beta= 0.50
     Davidson diagonalization with overlap
     c_bands:  1 eigenvalues not converged
     c_bands:  3 eigenvalues not converged
     c_bands:  1 eigenvalues not converged
     c_bands:  1 eigenvalues not converged
     c_bands:  2 eigenvalues not converged
     c_bands:  1 eigenvalues not converged
     ethr =  1.09E-06,  avg # of iterations = 10.9

     negative rho (up, down):  5.582E-03 5.008E-03

     total cpu time spent up to now is       51.6 secs

     total energy              =    -495.73702961 Ry
     estimated scf accuracy    <       0.00006153 Ry

     total magnetization       =     8.00 Bohr mag/cell
     absolute magnetization    =     8.78 Bohr mag/cell

     iteration #  8     ecut=    48.00 Ry     beta= 0.50
     Davidson diagonalization with overlap
     c_bands:  1 eigenvalues not converged
     c_bands:  1 eigenvalues not converged
     c_bands:  1 eigenvalues not converged
     c_bands:  1 eigenvalues not converged
     c_bands:  1 eigenvalues not converged
     c_bands:  1 eigenvalues not converged
     c_bands:  2 eigenvalues not converged
     c_bands:  1 eigenvalues not converged
     c_bands:  1 eigenvalues not converged
     c_bands:  1 eigenvalues not converged
     c_bands:  2 eigenvalues not converged
     c_bands:  1 eigenvalues not converged
     ethr =  2.20E-07,  avg # of iterations = 16.3

     negative rho (up, down):  5.362E-03 4.865E-03

     total cpu time spent up to now is       59.7 secs

     total energy              =    -495.73690459 Ry
     estimated scf accuracy    <       0.00605531 Ry

     total magnetization       =     8.00 Bohr mag/cell
     absolute magnetization    =     8.78 Bohr mag/cell

     iteration #  9     ecut=    48.00 Ry     beta= 0.50
     Davidson diagonalization with overlap
     c_bands:  1 eigenvalues not converged
     ethr =  2.20E-07,  avg # of iterations =  8.3

     negative rho (up, down):  5.237E-03 4.824E-03

     total cpu time spent up to now is       66.0 secs

     total energy              =    -495.73710943 Ry
     estimated scf accuracy    <       0.00177034 Ry

     total magnetization       =     8.00 Bohr mag/cell
     absolute magnetization    =     8.78 Bohr mag/cell

     iteration # 10     ecut=    48.00 Ry     beta= 0.50
     Davidson diagonalization with overlap
     ethr =  2.20E-07,  avg # of iterations =  1.1

     negative rho (up, down):  5.206E-03 4.831E-03

     total cpu time spent up to now is       70.9 secs

     total energy              =    -495.73694038 Ry
     estimated scf accuracy    <       0.00171306 Ry

     total magnetization       =     8.00 Bohr mag/cell
     absolute magnetization    =     8.78 Bohr mag/cell

     iteration # 11     ecut=    48.00 Ry     beta= 0.50
     Davidson diagonalization with overlap
     c_bands:  1 eigenvalues not converged
     c_bands:  1 eigenvalues not converged
     c_bands:  1 eigenvalues not converged
     c_bands:  1 eigenvalues not converged
     c_bands:  1 eigenvalues not converged
     c_bands:  1 eigenvalues not converged
     ethr =  2.20E-07,  avg # of iterations = 12.3

     negative rho (up, down):  5.272E-03 4.832E-03

     total cpu time spent up to now is       78.0 secs

     total energy              =    -495.73712617 Ry
     estimated scf accuracy    <       0.01159171 Ry

     total magnetization       =     8.00 Bohr mag/cell
     absolute magnetization    =     8.78 Bohr mag/cell

     iteration # 12     ecut=    48.00 Ry     beta= 0.50
     Davidson diagonalization with overlap
     ethr =  2.20E-07,  avg # of iterations =  5.3

     negative rho (up, down):  5.309E-03 4.831E-03

     total cpu time spent up to now is       83.5 secs

     total energy              =    -495.73710228 Ry
     estimated scf accuracy    <       0.00396154 Ry

     total magnetization       =     8.00 Bohr mag/cell
     absolute magnetization    =     8.78 Bohr mag/cell

     iteration # 13     ecut=    48.00 Ry     beta= 0.50
     Davidson diagonalization with overlap
     ethr =  2.20E-07,  avg # of iterations =  1.0

     negative rho (up, down):  5.328E-03 4.831E-03

     total cpu time spent up to now is       88.3 secs

     total energy              =    -495.73707153 Ry
     estimated scf accuracy    <       0.00369415 Ry

     total magnetization       =     8.00 Bohr mag/cell
     absolute magnetization    =     8.78 Bohr mag/cell

     iteration # 14     ecut=    48.00 Ry     beta= 0.50
     Davidson diagonalization with overlap
     ethr =  2.20E-07,  avg # of iterations =  5.1

     negative rho (up, down):  5.237E-03 4.836E-03

     total cpu time spent up to now is       93.8 secs

     total energy              =    -495.73710564 Ry
     estimated scf accuracy    <       0.00021020 Ry

     total magnetization       =     8.00 Bohr mag/cell
     absolute magnetization    =     8.78 Bohr mag/cell

     iteration # 15     ecut=    48.00 Ry     beta= 0.50
     Davidson diagonalization with overlap
     ethr =  2.20E-07,  avg # of iterations =  1.0

     negative rho (up, down):  5.206E-03 4.837E-03

     total cpu time spent up to now is       98.6 secs

     total energy              =    -495.73710413 Ry
     estimated scf accuracy    <       0.00020237 Ry

     total magnetization       =     8.00 Bohr mag/cell
     absolute magnetization    =     8.78 Bohr mag/cell

     iteration # 16     ecut=    48.00 Ry     beta= 0.50
     Davidson diagonalization with overlap
     ethr =  2.20E-07,  avg # of iterations =  1.0

     negative rho (up, down):  5.195E-03 4.837E-03

     total cpu time spent up to now is      103.4 secs

     total energy              =    -495.73710397 Ry
     estimated scf accuracy    <       0.00018200 Ry

     total magnetization       =     8.00 Bohr mag/cell
     absolute magnetization    =     8.78 Bohr mag/cell

     iteration # 17     ecut=    48.00 Ry     beta= 0.50
     Davidson diagonalization with overlap
     ethr =  2.20E-07,  avg # of iterations =  1.0

     negative rho (up, down):  5.190E-03 4.837E-03

     total cpu time spent up to now is      108.2 secs

     total energy              =    -495.73710267 Ry
     estimated scf accuracy    <       0.00017345 Ry

     total magnetization       =     8.00 Bohr mag/cell
     absolute magnetization    =     8.78 Bohr mag/cell

     iteration # 18     ecut=    48.00 Ry     beta= 0.50
     Davidson diagonalization with overlap
     ethr =  2.20E-07,  avg # of iterations =  1.0

     negative rho (up, down):  5.188E-03 4.838E-03

     total cpu time spent up to now is      113.0 secs

     total energy              =    -495.73710295 Ry
     estimated scf accuracy    <       0.00015863 Ry

     total magnetization       =     8.00 Bohr mag/cell
     absolute magnetization    =     8.78 Bohr mag/cell

     iteration # 19     ecut=    48.00 Ry     beta= 0.50
     Davidson diagonalization with overlap
     ethr =  2.20E-07,  avg # of iterations =  1.0

     negative rho (up, down):  5.187E-03 4.839E-03

     total cpu time spent up to now is      117.8 secs

     total energy              =    -495.73710221 Ry
     estimated scf accuracy    <       0.00015175 Ry

     total magnetization       =     8.00 Bohr mag/cell
     absolute magnetization    =     8.78 Bohr mag/cell

     iteration # 20     ecut=    48.00 Ry     beta= 0.50
     Davidson diagonalization with overlap
     ethr =  2.20E-07,  avg # of iterations =  1.0

     negative rho (up, down):  5.186E-03 4.839E-03

     total cpu time spent up to now is      122.6 secs

     total energy              =    -495.73710183 Ry
     estimated scf accuracy    <       0.00013799 Ry

     total magnetization       =     8.00 Bohr mag/cell
     absolute magnetization    =     8.78 Bohr mag/cell

     iteration # 21     ecut=    48.00 Ry     beta= 0.50
     Davidson diagonalization with overlap
     ethr =  2.20E-07,  avg # of iterations =  1.0

     negative rho (up, down):  5.186E-03 4.838E-03

     total cpu time spent up to now is      127.4 secs

     total energy              =    -495.73710188 Ry
     estimated scf accuracy    <       0.00013080 Ry

     total magnetization       =     8.00 Bohr mag/cell
     absolute magnetization    =     8.78 Bohr mag/cell

     iteration # 22     ecut=    48.00 Ry     beta= 0.50
     Davidson diagonalization with overlap
     ethr =  2.20E-07,  avg # of iterations =  1.0

     negative rho (up, down):  5.179E-03 4.844E-03

     total cpu time spent up to now is      132.2 secs

     total energy              =    -495.73707807 Ry
     estimated scf accuracy    <       0.00012432 Ry

     total magnetization       =     8.00 Bohr mag/cell
     absolute magnetization    =     8.78 Bohr mag/cell

     iteration # 23     ecut=    48.00 Ry     beta= 0.50
     Davidson diagonalization with overlap
     ethr =  2.20E-07,  avg # of iterations =  6.4

     negative rho (up, down):  5.192E-03 4.839E-03

     total cpu time spent up to now is      138.2 secs

     total energy              =    -495.73708762 Ry
     estimated scf accuracy    <       0.00283302 Ry

     total magnetization       =     8.00 Bohr mag/cell
     absolute magnetization    =     8.78 Bohr mag/cell

     iteration # 24     ecut=    48.00 Ry     beta= 0.50
     Davidson diagonalization with overlap
     ethr =  2.20E-07,  avg # of iterations =  5.6

     negative rho (up, down):  5.191E-03 4.839E-03

     total cpu time spent up to now is      143.8 secs

     total energy              =    -495.73710629 Ry
     estimated scf accuracy    <       0.00031769 Ry

     total magnetization       =     8.00 Bohr mag/cell
     absolute magnetization    =     8.78 Bohr mag/cell

     iteration # 25     ecut=    48.00 Ry     beta= 0.50
     Davidson diagonalization with overlap
     ethr =  2.20E-07,  avg # of iterations =  1.0

     negative rho (up, down):  5.188E-03 4.839E-03

     total cpu time spent up to now is      148.6 secs

     total energy              =    -495.73710024 Ry
     estimated scf accuracy    <       0.00029682 Ry

     total magnetization       =     8.00 Bohr mag/cell
     absolute magnetization    =     8.78 Bohr mag/cell

     iteration # 26     ecut=    48.00 Ry     beta= 0.50
     Davidson diagonalization with overlap
     ethr =  2.20E-07,  avg # of iterations =  1.1

     negative rho (up, down):  5.187E-03 4.839E-03

     total cpu time spent up to now is      153.5 secs

     total energy              =    -495.73709936 Ry
     estimated scf accuracy    <       0.00022488 Ry

     total magnetization       =     8.00 Bohr mag/cell
     absolute magnetization    =     8.78 Bohr mag/cell

     iteration # 27     ecut=    48.00 Ry     beta= 0.50
     Davidson diagonalization with overlap
     ethr =  2.20E-07,  avg # of iterations =  1.0

     negative rho (up, down):  5.188E-03 4.839E-03

     total cpu time spent up to now is      158.3 secs

     total energy              =    -495.73710193 Ry
     estimated scf accuracy    <       0.00020100 Ry

     total magnetization       =     8.00 Bohr mag/cell
     absolute magnetization    =     8.78 Bohr mag/cell

     iteration # 28     ecut=    48.00 Ry     beta= 0.50
     Davidson diagonalization with overlap
     ethr =  2.20E-07,  avg # of iterations =  1.0

     negative rho (up, down):  5.189E-03 4.839E-03

     total cpu time spent up to now is      163.1 secs

     total energy              =    -495.73710194 Ry
     estimated scf accuracy    <       0.00020850 Ry

     total magnetization       =     8.00 Bohr mag/cell
     absolute magnetization    =     8.78 Bohr mag/cell

     iteration # 29     ecut=    48.00 Ry     beta= 0.50
     Davidson diagonalization with overlap
     ethr =  2.20E-07,  avg # of iterations =  1.0

     negative rho (up, down):  5.189E-03 4.839E-03

     total cpu time spent up to now is      167.9 secs

     total energy              =    -495.73710117 Ry
     estimated scf accuracy    <       0.00020666 Ry

     total magnetization       =     8.00 Bohr mag/cell
     absolute magnetization    =     8.78 Bohr mag/cell

     iteration # 30     ecut=    48.00 Ry     beta= 0.50
     Davidson diagonalization with overlap
     ethr =  2.20E-07,  avg # of iterations =  1.0

     negative rho (up, down):  5.190E-03 4.839E-03

     total cpu time spent up to now is      172.7 secs

     total energy              =    -495.73710291 Ry
     estimated scf accuracy    <       0.00020036 Ry

     total magnetization       =     8.00 Bohr mag/cell
     absolute magnetization    =     8.78 Bohr mag/cell

     iteration # 31     ecut=    48.00 Ry     beta= 0.50
     Davidson diagonalization with overlap
     ethr =  2.20E-07,  avg # of iterations =  1.0

     negative rho (up, down):  5.184E-03 4.840E-03

     total cpu time spent up to now is      177.5 secs

     total energy              =    -495.73708764 Ry
     estimated scf accuracy    <       0.00020432 Ry

     total magnetization       =     8.00 Bohr mag/cell
     absolute magnetization    =     8.78 Bohr mag/cell

     iteration # 32     ecut=    48.00 Ry     beta= 0.50
     Davidson diagonalization with overlap
     ethr =  2.20E-07,  avg # of iterations =  5.0

     negative rho (up, down):  5.188E-03 4.840E-03

     total cpu time spent up to now is      183.0 secs

     total energy              =    -495.73712865 Ry
     estimated scf accuracy    <       0.00136228 Ry

     total magnetization       =     8.00 Bohr mag/cell
     absolute magnetization    =     8.78 Bohr mag/cell

     iteration # 33     ecut=    48.00 Ry     beta= 0.50
     Davidson diagonalization with overlap
     ethr =  2.20E-07,  avg # of iterations =  1.0

     negative rho (up, down):  5.205E-03 4.839E-03

     total cpu time spent up to now is      187.8 secs

     total energy              =    -495.73711626 Ry
     estimated scf accuracy    <       0.00137306 Ry

     total magnetization       =     8.00 Bohr mag/cell
     absolute magnetization    =     8.78 Bohr mag/cell

     iteration # 34     ecut=    48.00 Ry     beta= 0.50
     Davidson diagonalization with overlap
     ethr =  2.20E-07,  avg # of iterations =  1.0

     negative rho (up, down):  5.219E-03 4.839E-03

     total cpu time spent up to now is      192.6 secs

     total energy              =    -495.73711187 Ry
     estimated scf accuracy    <       0.00132722 Ry

     total magnetization       =     8.00 Bohr mag/cell
     absolute magnetization    =     8.78 Bohr mag/cell

     iteration # 35     ecut=    48.00 Ry     beta= 0.50
     Davidson diagonalization with overlap
     ethr =  2.20E-07,  avg # of iterations =  1.0

     negative rho (up, down):  5.227E-03 4.839E-03

     total cpu time spent up to now is      197.4 secs

     total energy              =    -495.73710826 Ry
     estimated scf accuracy    <       0.00129346 Ry

     total magnetization       =     8.00 Bohr mag/cell
     absolute magnetization    =     8.78 Bohr mag/cell

     iteration # 36     ecut=    48.00 Ry     beta= 0.50
     Davidson diagonalization with overlap
     ethr =  2.20E-07,  avg # of iterations =  1.0

     negative rho (up, down):  5.229E-03 4.839E-03

     total cpu time spent up to now is      202.2 secs

     total energy              =    -495.73710401 Ry
     estimated scf accuracy    <       0.00126923 Ry

     total magnetization       =     8.00 Bohr mag/cell
     absolute magnetization    =     8.78 Bohr mag/cell

     iteration # 37     ecut=    48.00 Ry     beta= 0.50
     Davidson diagonalization with overlap
     ethr =  2.20E-07,  avg # of iterations =  1.0

     negative rho (up, down):  5.240E-03 4.839E-03

     total cpu time spent up to now is      207.0 secs

     total energy              =    -495.73711091 Ry
     estimated scf accuracy    <       0.00118770 Ry

     total magnetization       =     8.00 Bohr mag/cell
     absolute magnetization    =     8.78 Bohr mag/cell

     iteration # 38     ecut=    48.00 Ry     beta= 0.50
     Davidson diagonalization with overlap
     ethr =  2.20E-07,  avg # of iterations =  1.0

     negative rho (up, down):  5.230E-03 4.839E-03

     total cpu time spent up to now is      211.8 secs

     total energy              =    -495.73709985 Ry
     estimated scf accuracy    <       0.00121724 Ry

     total magnetization       =     8.00 Bohr mag/cell
     absolute magnetization    =     8.78 Bohr mag/cell

     iteration # 39     ecut=    48.00 Ry     beta= 0.50
     Davidson diagonalization with overlap
     ethr =  2.20E-07,  avg # of iterations =  1.1

     negative rho (up, down):  5.223E-03 4.839E-03

     total cpu time spent up to now is      216.6 secs

     total energy              =    -495.73708243 Ry
     estimated scf accuracy    <       0.00109766 Ry

     total magnetization       =     8.00 Bohr mag/cell
     absolute magnetization    =     8.78 Bohr mag/cell

     iteration # 40     ecut=    48.00 Ry     beta= 0.50
     Davidson diagonalization with overlap
     ethr =  2.20E-07,  avg # of iterations =  1.5

     negative rho (up, down):  5.183E-03 4.870E-03

     total cpu time spent up to now is      221.6 secs

     total energy              =    -495.73687653 Ry
     estimated scf accuracy    <       0.00094008 Ry

     total magnetization       =     8.00 Bohr mag/cell
     absolute magnetization    =     8.78 Bohr mag/cell

     iteration # 41     ecut=    48.00 Ry     beta= 0.50
     Davidson diagonalization with overlap
     c_bands:  1 eigenvalues not converged
     c_bands:  1 eigenvalues not converged
     c_bands:  2 eigenvalues not converged
     c_bands:  1 eigenvalues not converged
     c_bands:  1 eigenvalues not converged
     ethr =  2.20E-07,  avg # of iterations = 14.6

     negative rho (up, down):  5.374E-03 4.839E-03

     total cpu time spent up to now is      230.2 secs

     total energy              =    -495.73688959 Ry
     estimated scf accuracy    <       0.03040557 Ry

     total magnetization       =     8.00 Bohr mag/cell
     absolute magnetization    =     8.78 Bohr mag/cell

     iteration # 42     ecut=    48.00 Ry     beta= 0.50
     Davidson diagonalization with overlap
     ethr =  2.20E-07,  avg # of iterations = 12.3

     negative rho (up, down):  5.318E-03 4.841E-03

     total cpu time spent up to now is      237.4 secs

     total energy              =    -495.73706726 Ry
     estimated scf accuracy    <       0.00314199 Ry

     total magnetization       =     8.00 Bohr mag/cell
     absolute magnetization    =     8.78 Bohr mag/cell

     iteration # 43     ecut=    48.00 Ry     beta= 0.50
     Davidson diagonalization with overlap
     ethr =  2.20E-07,  avg # of iterations =  6.0

     negative rho (up, down):  5.224E-03 4.839E-03

     total cpu time spent up to now is      243.1 secs

     total energy              =    -495.73710224 Ry
     estimated scf accuracy    <       0.00008594 Ry

     total magnetization       =     8.00 Bohr mag/cell
     absolute magnetization    =     8.78 Bohr mag/cell

     iteration # 44     ecut=    48.00 Ry     beta= 0.50
     Davidson diagonalization with overlap
     ethr =  2.20E-07,  avg # of iterations =  1.0

     negative rho (up, down):  5.194E-03 4.839E-03

     total cpu time spent up to now is      248.0 secs

     total energy              =    -495.73710123 Ry
     estimated scf accuracy    <       0.00007203 Ry

     total magnetization       =     8.00 Bohr mag/cell
     absolute magnetization    =     8.78 Bohr mag/cell

     iteration # 45     ecut=    48.00 Ry     beta= 0.50
     Davidson diagonalization with overlap
     ethr =  2.20E-07,  avg # of iterations =  1.1

     negative rho (up, down):  5.187E-03 4.838E-03

     total cpu time spent up to now is      252.8 secs

     total energy              =    -495.73710375 Ry
     estimated scf accuracy    <       0.00003978 Ry

     total magnetization       =     8.00 Bohr mag/cell
     absolute magnetization    =     8.78 Bohr mag/cell

     iteration # 46     ecut=    48.00 Ry     beta= 0.50
     Davidson diagonalization with overlap
     ethr =  1.42E-07,  avg # of iterations =  1.3

     negative rho (up, down):  5.184E-03 4.838E-03

     total cpu time spent up to now is      257.7 secs

     total energy              =    -495.73710482 Ry
     estimated scf accuracy    <       0.00004321 Ry

     total magnetization       =     8.00 Bohr mag/cell
     absolute magnetization    =     8.78 Bohr mag/cell

     iteration # 47     ecut=    48.00 Ry     beta= 0.50
     Davidson diagonalization with overlap
     ethr =  1.42E-07,  avg # of iterations =  1.0

     negative rho (up, down):  5.183E-03 4.838E-03

     total cpu time spent up to now is      262.5 secs

     total energy              =    -495.73710592 Ry
     estimated scf accuracy    <       0.00004359 Ry

     total magnetization       =     8.00 Bohr mag/cell
     absolute magnetization    =     8.78 Bohr mag/cell

     iteration # 48     ecut=    48.00 Ry     beta= 0.50
     Davidson diagonalization with overlap
     ethr =  1.42E-07,  avg # of iterations =  1.0

     negative rho (up, down):  5.182E-03 4.838E-03

     total cpu time spent up to now is      267.3 secs

     total energy              =    -495.73710650 Ry
     estimated scf accuracy    <       0.00004793 Ry

     total magnetization       =     8.00 Bohr mag/cell
     absolute magnetization    =     8.78 Bohr mag/cell

     iteration # 49     ecut=    48.00 Ry     beta= 0.50
     Davidson diagonalization with overlap
     ethr =  1.42E-07,  avg # of iterations =  1.0

     negative rho (up, down):  5.180E-03 4.838E-03

     total cpu time spent up to now is      272.1 secs

     total energy              =    -495.73710544 Ry
     estimated scf accuracy    <       0.00004943 Ry

     total magnetization       =     8.00 Bohr mag/cell
     absolute magnetization    =     8.78 Bohr mag/cell

     iteration # 50     ecut=    48.00 Ry     beta= 0.50
     Davidson diagonalization with overlap
     ethr =  1.42E-07,  avg # of iterations =  1.0

     negative rho (up, down):  5.180E-03 4.838E-03

     total cpu time spent up to now is      276.9 secs

     total energy              =    -495.73710464 Ry
     estimated scf accuracy    <       0.00003896 Ry

     total magnetization       =     8.00 Bohr mag/cell
     absolute magnetization    =     8.78 Bohr mag/cell

     iteration # 51     ecut=    48.00 Ry     beta= 0.50
     Davidson diagonalization with overlap
     ethr =  1.39E-07,  avg # of iterations =  1.0

     negative rho (up, down):  5.178E-03 4.842E-03

     total cpu time spent up to now is      281.7 secs

     total energy              =    -495.73708869 Ry
     estimated scf accuracy    <       0.00003353 Ry

     total magnetization       =     8.00 Bohr mag/cell
     absolute magnetization    =     8.78 Bohr mag/cell

     iteration # 52     ecut=    48.00 Ry     beta= 0.50
     Davidson diagonalization with overlap
     ethr =  1.20E-07,  avg # of iterations =  9.6

     negative rho (up, down):  5.213E-03 4.839E-03

     total cpu time spent up to now is      288.5 secs

     total energy              =    -495.73705374 Ry
     estimated scf accuracy    <       0.00489773 Ry

     total magnetization       =     8.00 Bohr mag/cell
     absolute magnetization    =     8.78 Bohr mag/cell

     iteration # 53     ecut=    48.00 Ry     beta= 0.50
     Davidson diagonalization with overlap
     ethr =  1.20E-07,  avg # of iterations =  5.4

     negative rho (up, down):  5.195E-03 4.838E-03

     total cpu time spent up to now is      294.3 secs

     total energy              =    -495.73710584 Ry
     estimated scf accuracy    <       0.00012640 Ry

     total magnetization       =     8.00 Bohr mag/cell
     absolute magnetization    =     8.78 Bohr mag/cell

     iteration # 54     ecut=    48.00 Ry     beta= 0.50
     Davidson diagonalization with overlap
     ethr =  1.20E-07,  avg # of iterations =  1.0

     negative rho (up, down):  5.189E-03 4.838E-03

     total cpu time spent up to now is      299.2 secs

     total energy              =    -495.73710613 Ry
     estimated scf accuracy    <       0.00011674 Ry

     total magnetization       =     8.00 Bohr mag/cell
     absolute magnetization    =     8.78 Bohr mag/cell

     iteration # 55     ecut=    48.00 Ry     beta= 0.50
     Davidson diagonalization with overlap
     ethr =  1.20E-07,  avg # of iterations =  1.0

     negative rho (up, down):  5.185E-03 4.838E-03

     total cpu time spent up to now is      304.0 secs

     total energy              =    -495.73710464 Ry
     estimated scf accuracy    <       0.00011301 Ry

     total magnetization       =     8.00 Bohr mag/cell
     absolute magnetization    =     8.78 Bohr mag/cell

     iteration # 56     ecut=    48.00 Ry     beta= 0.50
     Davidson diagonalization with overlap
     ethr =  1.20E-07,  avg # of iterations =  1.0

     negative rho (up, down):  5.184E-03 4.838E-03

     total cpu time spent up to now is      308.8 secs

     total energy              =    -495.73710437 Ry
     estimated scf accuracy    <       0.00009657 Ry

     total magnetization       =     8.00 Bohr mag/cell
     absolute magnetization    =     8.78 Bohr mag/cell

     iteration # 57     ecut=    48.00 Ry     beta= 0.50
     Davidson diagonalization with overlap
     ethr =  1.20E-07,  avg # of iterations =  1.0

     negative rho (up, down):  5.183E-03 4.838E-03

     total cpu time spent up to now is      313.6 secs

     total energy              =    -495.73710374 Ry
     estimated scf accuracy    <       0.00009060 Ry

     total magnetization       =     8.00 Bohr mag/cell
     absolute magnetization    =     8.78 Bohr mag/cell

     iteration # 58     ecut=    48.00 Ry     beta= 0.50
     Davidson diagonalization with overlap
     ethr =  1.20E-07,  avg # of iterations =  1.0

     negative rho (up, down):  5.183E-03 4.838E-03

     total cpu time spent up to now is      318.4 secs

     total energy              =    -495.73710345 Ry
     estimated scf accuracy    <       0.00008072 Ry

     total magnetization       =     8.00 Bohr mag/cell
     absolute magnetization    =     8.78 Bohr mag/cell

     iteration # 59     ecut=    48.00 Ry     beta= 0.50
     Davidson diagonalization with overlap
     ethr =  1.20E-07,  avg # of iterations =  1.0

     negative rho (up, down):  5.183E-03 4.838E-03

     total cpu time spent up to now is      323.2 secs

     total energy              =    -495.73710377 Ry
     estimated scf accuracy    <       0.00007414 Ry

     total magnetization       =     8.00 Bohr mag/cell
     absolute magnetization    =     8.78 Bohr mag/cell

     iteration # 60     ecut=    48.00 Ry     beta= 0.50
     Davidson diagonalization with overlap
     ethr =  1.20E-07,  avg # of iterations =  1.0

     negative rho (up, down):  5.180E-03 4.839E-03

     total cpu time spent up to now is      328.0 secs

     total energy              =    -495.73709783 Ry
     estimated scf accuracy    <       0.00007257 Ry

     total magnetization       =     8.00 Bohr mag/cell
     absolute magnetization    =     8.78 Bohr mag/cell

     iteration # 61     ecut=    48.00 Ry     beta= 0.50
     Davidson diagonalization with overlap
     ethr =  1.20E-07,  avg # of iterations =  5.1

     negative rho (up, down):  5.183E-03 4.838E-03

     total cpu time spent up to now is      333.5 secs

     total energy              =    -495.73711130 Ry
     estimated scf accuracy    <       0.00076320 Ry

     total magnetization       =     8.00 Bohr mag/cell
     absolute magnetization    =     8.78 Bohr mag/cell

     iteration # 62     ecut=    48.00 Ry     beta= 0.50
     Davidson diagonalization with overlap
     ethr =  1.20E-07,  avg # of iterations =  1.0

     negative rho (up, down):  5.193E-03 4.838E-03

     total cpu time spent up to now is      338.3 secs

     total energy              =    -495.73710944 Ry
     estimated scf accuracy    <       0.00073093 Ry

     total magnetization       =     8.00 Bohr mag/cell
     absolute magnetization    =     8.78 Bohr mag/cell

     iteration # 63     ecut=    48.00 Ry     beta= 0.50
     Davidson diagonalization with overlap
     ethr =  1.20E-07,  avg # of iterations =  1.0

     negative rho (up, down):  5.199E-03 4.838E-03

     total cpu time spent up to now is      343.1 secs

     total energy              =    -495.73710376 Ry
     estimated scf accuracy    <       0.00071441 Ry

     total magnetization       =     8.00 Bohr mag/cell
     absolute magnetization    =     8.78 Bohr mag/cell

     iteration # 64     ecut=    48.00 Ry     beta= 0.50
     Davidson diagonalization with overlap
     ethr =  1.20E-07,  avg # of iterations =  1.0

     negative rho (up, down):  5.201E-03 4.838E-03

     total cpu time spent up to now is      347.9 secs

     total energy              =    -495.73709895 Ry
     estimated scf accuracy    <       0.00066846 Ry

     total magnetization       =     8.00 Bohr mag/cell
     absolute magnetization    =     8.78 Bohr mag/cell

     iteration # 65     ecut=    48.00 Ry     beta= 0.50
     Davidson diagonalization with overlap
     ethr =  1.20E-07,  avg # of iterations =  1.0

     negative rho (up, down):  5.202E-03 4.839E-03

     total cpu time spent up to now is      352.8 secs

     total energy              =    -495.73709401 Ry
     estimated scf accuracy    <       0.00061968 Ry

     total magnetization       =     8.00 Bohr mag/cell
     absolute magnetization    =     8.78 Bohr mag/cell

     iteration # 66     ecut=    48.00 Ry     beta= 0.50
     Davidson diagonalization with overlap
     ethr =  1.20E-07,  avg # of iterations =  1.8

     negative rho (up, down):  5.199E-03 4.839E-03

     total cpu time spent up to now is      357.7 secs

     total energy              =    -495.73709085 Ry
     estimated scf accuracy    <       0.00047320 Ry

     total magnetization       =     8.00 Bohr mag/cell
     absolute magnetization    =     8.78 Bohr mag/cell

     iteration # 67     ecut=    48.00 Ry     beta= 0.50
     Davidson diagonalization with overlap
     ethr =  1.20E-07,  avg # of iterations =  4.2

     negative rho (up, down):  5.181E-03 4.838E-03

     total cpu time spent up to now is      363.1 secs

     total energy              =    -495.73710437 Ry
     estimated scf accuracy    <       0.00012020 Ry

     total magnetization       =     8.00 Bohr mag/cell
     absolute magnetization    =     8.78 Bohr mag/cell

     iteration # 68     ecut=    48.00 Ry     beta= 0.50
     Davidson diagonalization with overlap
     ethr =  1.20E-07,  avg # of iterations =  1.0

     negative rho (up, down):  5.179E-03 4.838E-03

     total cpu time spent up to now is      367.9 secs

     total energy              =    -495.73710395 Ry
     estimated scf accuracy    <       0.00009734 Ry

     total magnetization       =     8.00 Bohr mag/cell
     absolute magnetization    =     8.78 Bohr mag/cell

     iteration # 69     ecut=    48.00 Ry     beta= 0.50
     Davidson diagonalization with overlap
     ethr =  1.20E-07,  avg # of iterations =  1.0

     negative rho (up, down):  5.180E-03 4.838E-03

     total cpu time spent up to now is      372.7 secs

     total energy              =    -495.73710390 Ry
     estimated scf accuracy    <       0.00008871 Ry

     total magnetization       =     8.00 Bohr mag/cell
     absolute magnetization    =     8.78 Bohr mag/cell

     iteration # 70     ecut=    48.00 Ry     beta= 0.50
     Davidson diagonalization with overlap
     ethr =  1.20E-07,  avg # of iterations =  1.0

     negative rho (up, down):  5.181E-03 4.838E-03

     total cpu time spent up to now is      377.5 secs

     total energy              =    -495.73710348 Ry
     estimated scf accuracy    <       0.00008415 Ry

     total magnetization       =     8.00 Bohr mag/cell
     absolute magnetization    =     8.78 Bohr mag/cell

     iteration # 71     ecut=    48.00 Ry     beta= 0.50
     Davidson diagonalization with overlap
     ethr =  1.20E-07,  avg # of iterations =  1.0

     negative rho (up, down):  5.181E-03 4.838E-03

     total cpu time spent up to now is      382.3 secs

     total energy              =    -495.73710323 Ry
     estimated scf accuracy    <       0.00007612 Ry

     total magnetization       =     8.00 Bohr mag/cell
     absolute magnetization    =     8.78 Bohr mag/cell

     iteration # 72     ecut=    48.00 Ry     beta= 0.50
     Davidson diagonalization with overlap
     ethr =  1.20E-07,  avg # of iterations =  1.0

     negative rho (up, down):  5.182E-03 4.838E-03

     total cpu time spent up to now is      387.1 secs

     total energy              =    -495.73710333 Ry
     estimated scf accuracy    <       0.00007151 Ry

     total magnetization       =     8.00 Bohr mag/cell
     absolute magnetization    =     8.78 Bohr mag/cell

     iteration # 73     ecut=    48.00 Ry     beta= 0.50
     Davidson diagonalization with overlap
     ethr =  1.20E-07,  avg # of iterations =  1.0

     negative rho (up, down):  5.182E-03 4.838E-03

     total cpu time spent up to now is      391.9 secs

     total energy              =    -495.73710342 Ry
     estimated scf accuracy    <       0.00006835 Ry

     total magnetization       =     8.00 Bohr mag/cell
     absolute magnetization    =     8.78 Bohr mag/cell

     iteration # 74     ecut=    48.00 Ry     beta= 0.50
     Davidson diagonalization with overlap
     ethr =  1.20E-07,  avg # of iterations =  1.0

     negative rho (up, down):  5.182E-03 4.838E-03

     total cpu time spent up to now is      396.7 secs

     total energy              =    -495.73710372 Ry
     estimated scf accuracy    <       0.00006561 Ry

     total magnetization       =     8.00 Bohr mag/cell
     absolute magnetization    =     8.78 Bohr mag/cell

     iteration # 75     ecut=    48.00 Ry     beta= 0.50
     Davidson diagonalization with overlap
     ethr =  1.20E-07,  avg # of iterations =  1.0

     negative rho (up, down):  5.179E-03 4.841E-03

     total cpu time spent up to now is      401.5 secs

     total energy              =    -495.73708666 Ry
     estimated scf accuracy    <       0.00006459 Ry

     total magnetization       =     8.00 Bohr mag/cell
     absolute magnetization    =     8.78 Bohr mag/cell

     iteration # 76     ecut=    48.00 Ry     beta= 0.50
     Davidson diagonalization with overlap
     ethr =  1.20E-07,  avg # of iterations =  5.3

     negative rho (up, down):  5.199E-03 4.839E-03

     total cpu time spent up to now is      407.4 secs

     total energy              =    -495.73707364 Ry
     estimated scf accuracy    <       0.00337398 Ry

     total magnetization       =     8.00 Bohr mag/cell
     absolute magnetization    =     8.78 Bohr mag/cell

     iteration # 77     ecut=    48.00 Ry     beta= 0.50
     Davidson diagonalization with overlap
     ethr =  1.20E-07,  avg # of iterations =  5.7

     negative rho (up, down):  5.190E-03 4.838E-03

     total cpu time spent up to now is      413.1 secs

     total energy              =    -495.73710648 Ry
     estimated scf accuracy    <       0.00013751 Ry

     total magnetization       =     8.00 Bohr mag/cell
     absolute magnetization    =     8.78 Bohr mag/cell

     iteration # 78     ecut=    48.00 Ry     beta= 0.50
     Davidson diagonalization with overlap
     ethr =  1.20E-07,  avg # of iterations =  1.0

     negative rho (up, down):  5.187E-03 4.838E-03

     total cpu time spent up to now is      417.9 secs

     total energy              =    -495.73710692 Ry
     estimated scf accuracy    <       0.00012862 Ry

     total magnetization       =     8.00 Bohr mag/cell
     absolute magnetization    =     8.78 Bohr mag/cell

     iteration # 79     ecut=    48.00 Ry     beta= 0.50
     Davidson diagonalization with overlap
     ethr =  1.20E-07,  avg # of iterations =  1.0

     negative rho (up, down):  5.185E-03 4.838E-03

     total cpu time spent up to now is      422.7 secs

     total energy              =    -495.73710668 Ry
     estimated scf accuracy    <       0.00012554 Ry

     total magnetization       =     8.00 Bohr mag/cell
     absolute magnetization    =     8.78 Bohr mag/cell

     iteration # 80     ecut=    48.00 Ry     beta= 0.50
     Davidson diagonalization with overlap
     ethr =  1.20E-07,  avg # of iterations =  1.0

     negative rho (up, down):  5.185E-03 4.838E-03

     total cpu time spent up to now is      427.5 secs

     total energy              =    -495.73710696 Ry
     estimated scf accuracy    <       0.00012007 Ry

     total magnetization       =     8.00 Bohr mag/cell
     absolute magnetization    =     8.78 Bohr mag/cell

     iteration # 81     ecut=    48.00 Ry     beta= 0.50
     Davidson diagonalization with overlap
     ethr =  1.20E-07,  avg # of iterations =  1.0

     negative rho (up, down):  5.184E-03 4.838E-03

     total cpu time spent up to now is      432.3 secs

     total energy              =    -495.73710745 Ry
     estimated scf accuracy    <       0.00012016 Ry

     total magnetization       =     8.00 Bohr mag/cell
     absolute magnetization    =     8.78 Bohr mag/cell

     iteration # 82     ecut=    48.00 Ry     beta= 0.50
     Davidson diagonalization with overlap
     ethr =  1.20E-07,  avg # of iterations =  1.0

     negative rho (up, down):  5.185E-03 4.838E-03

     total cpu time spent up to now is      437.1 secs

     total energy              =    -495.73710852 Ry
     estimated scf accuracy    <       0.00012208 Ry

     total magnetization       =     8.00 Bohr mag/cell
     absolute magnetization    =     8.78 Bohr mag/cell

     iteration # 83     ecut=    48.00 Ry     beta= 0.50
     Davidson diagonalization with overlap
     ethr =  1.20E-07,  avg # of iterations =  1.0

     negative rho (up, down):  5.184E-03 4.838E-03

     total cpu time spent up to now is      441.9 secs

     total energy              =    -495.73710655 Ry
     estimated scf accuracy    <       0.00012938 Ry

     total magnetization       =     8.00 Bohr mag/cell
     absolute magnetization    =     8.78 Bohr mag/cell

     iteration # 84     ecut=    48.00 Ry     beta= 0.50
     Davidson diagonalization with overlap
     ethr =  1.20E-07,  avg # of iterations =  1.0

     negative rho (up, down):  5.182E-03 4.838E-03

     total cpu time spent up to now is      446.7 secs

     total energy              =    -495.73710405 Ry
     estimated scf accuracy    <       0.00011796 Ry

     total magnetization       =     8.00 Bohr mag/cell
     absolute magnetization    =     8.78 Bohr mag/cell

     iteration # 85     ecut=    48.00 Ry     beta= 0.50
     Davidson diagonalization with overlap
     ethr =  1.20E-07,  avg # of iterations =  1.2

     negative rho (up, down):  5.177E-03 4.850E-03

     total cpu time spent up to now is      451.6 secs

     total energy              =    -495.73705901 Ry
     estimated scf accuracy    <       0.00007872 Ry

     total magnetization       =     8.00 Bohr mag/cell
     absolute magnetization    =     8.78 Bohr mag/cell

     iteration # 86     ecut=    48.00 Ry     beta= 0.50
     Davidson diagonalization with overlap
     ethr =  1.20E-07,  avg # of iterations =  9.9

     negative rho (up, down):  5.268E-03 4.840E-03

     total cpu time spent up to now is      458.5 secs

     total energy              =    -495.73688934 Ry
     estimated scf accuracy    <       0.01395484 Ry

     total magnetization       =     8.00 Bohr mag/cell
     absolute magnetization    =     8.78 Bohr mag/cell

     iteration # 87     ecut=    48.00 Ry     beta= 0.50
     Davidson diagonalization with overlap
     ethr =  1.20E-07,  avg # of iterations =  8.6

     negative rho (up, down):  5.200E-03 4.839E-03

     total cpu time spent up to now is      465.1 secs

     total energy              =    -495.73710522 Ry
     estimated scf accuracy    <       0.00000060 Ry

     total magnetization       =     8.00 Bohr mag/cell
     absolute magnetization    =     8.78 Bohr mag/cell

     iteration # 88     ecut=    48.00 Ry     beta= 0.50
     Davidson diagonalization with overlap
     ethr =  2.14E-09,  avg # of iterations =  4.7

     negative rho (up, down):  5.185E-03 4.838E-03

     total cpu time spent up to now is      470.9 secs

     total energy              =    -495.73710628 Ry
     estimated scf accuracy    <       0.00000124 Ry

     total magnetization       =     8.00 Bohr mag/cell
     absolute magnetization    =     8.78 Bohr mag/cell

     iteration # 89     ecut=    48.00 Ry     beta= 0.50
     Davidson diagonalization with overlap
     ethr =  2.14E-09,  avg # of iterations =  6.7

     negative rho (up, down):  5.179E-03 4.838E-03

     total cpu time spent up to now is      476.6 secs

     total energy              =    -495.73710709 Ry
     estimated scf accuracy    <       0.00002363 Ry

     total magnetization       =     8.00 Bohr mag/cell
     absolute magnetization    =     8.78 Bohr mag/cell

     iteration # 90     ecut=    48.00 Ry     beta= 0.50
     Davidson diagonalization with overlap
     ethr =  2.14E-09,  avg # of iterations =  1.7

     negative rho (up, down):  5.179E-03 4.838E-03

     total cpu time spent up to now is      481.6 secs

     total energy              =    -495.73710721 Ry
     estimated scf accuracy    <       0.00002581 Ry

     total magnetization       =     8.00 Bohr mag/cell
     absolute magnetization    =     8.78 Bohr mag/cell

     iteration # 91     ecut=    48.00 Ry     beta= 0.50
     Davidson diagonalization with overlap
     ethr =  2.14E-09,  avg # of iterations =  1.1

     negative rho (up, down):  5.179E-03 4.838E-03

     total cpu time spent up to now is      486.4 secs

     total energy              =    -495.73710653 Ry
     estimated scf accuracy    <       0.00002661 Ry

     total magnetization       =     8.00 Bohr mag/cell
     absolute magnetization    =     8.78 Bohr mag/cell

     iteration # 92     ecut=    48.00 Ry     beta= 0.50
     Davidson diagonalization with overlap
     ethr =  2.14E-09,  avg # of iterations =  1.4

     negative rho (up, down):  5.179E-03 4.838E-03

     total cpu time spent up to now is      491.3 secs

     total energy              =    -495.73710546 Ry
     estimated scf accuracy    <       0.00002230 Ry

     total magnetization       =     8.00 Bohr mag/cell
     absolute magnetization    =     8.78 Bohr mag/cell

     iteration # 93     ecut=    48.00 Ry     beta= 0.50
     Davidson diagonalization with overlap
     ethr =  2.14E-09,  avg # of iterations =  6.2

     negative rho (up, down):  5.179E-03 4.838E-03

     total cpu time spent up to now is      497.2 secs

     total energy              =    -495.73710633 Ry
     estimated scf accuracy    <       0.00001206 Ry

     total magnetization       =     8.00 Bohr mag/cell
     absolute magnetization    =     8.78 Bohr mag/cell

     iteration # 94     ecut=    48.00 Ry     beta= 0.50
     Davidson diagonalization with overlap
     ethr =  2.14E-09,  avg # of iterations =  1.5

     negative rho (up, down):  5.179E-03 4.838E-03

     total cpu time spent up to now is      502.1 secs

     total energy              =    -495.73710602 Ry
     estimated scf accuracy    <       0.00001001 Ry

     total magnetization       =     8.00 Bohr mag/cell
     absolute magnetization    =     8.78 Bohr mag/cell

     iteration # 95     ecut=    48.00 Ry     beta= 0.50
     Davidson diagonalization with overlap
     ethr =  2.14E-09,  avg # of iterations =  4.9

     negative rho (up, down):  5.179E-03 4.838E-03

     total cpu time spent up to now is      507.7 secs

     total energy              =    -495.73710672 Ry
     estimated scf accuracy    <       0.00000506 Ry

     total magnetization       =     8.00 Bohr mag/cell
     absolute magnetization    =     8.78 Bohr mag/cell

     iteration # 96     ecut=    48.00 Ry     beta= 0.50
     Davidson diagonalization with overlap
     ethr =  2.14E-09,  avg # of iterations =  5.8

     negative rho (up, down):  5.179E-03 4.838E-03

     total cpu time spent up to now is      513.4 secs

     total energy              =    -495.73710617 Ry
     estimated scf accuracy    <       0.00004514 Ry

     total magnetization       =     8.00 Bohr mag/cell
     absolute magnetization    =     8.78 Bohr mag/cell

     iteration # 97     ecut=    48.00 Ry     beta= 0.50
     Davidson diagonalization with overlap
     ethr =  2.14E-09,  avg # of iterations =  4.7

     negative rho (up, down):  5.179E-03 4.838E-03

     total cpu time spent up to now is      518.9 secs

     total energy              =    -495.73710651 Ry
     estimated scf accuracy    <       0.00000475 Ry

     total magnetization       =     8.00 Bohr mag/cell
     absolute magnetization    =     8.78 Bohr mag/cell

     iteration # 98     ecut=    48.00 Ry     beta= 0.50
     Davidson diagonalization with overlap
     ethr =  2.14E-09,  avg # of iterations =  1.0

     negative rho (up, down):  5.179E-03 4.838E-03

     total cpu time spent up to now is      523.7 secs

     total energy              =    -495.73710650 Ry
     estimated scf accuracy    <       0.00000488 Ry

     total magnetization       =     8.00 Bohr mag/cell
     absolute magnetization    =     8.78 Bohr mag/cell

     iteration # 99     ecut=    48.00 Ry     beta= 0.50
     Davidson diagonalization with overlap
     ethr =  2.14E-09,  avg # of iterations =  1.0

     negative rho (up, down):  5.179E-03 4.838E-03

     total cpu time spent up to now is      528.5 secs

     total energy              =    -495.73710643 Ry
     estimated scf accuracy    <       0.00000479 Ry

     total magnetization       =     8.00 Bohr mag/cell
     absolute magnetization    =     8.78 Bohr mag/cell

     iteration #100     ecut=    48.00 Ry     beta= 0.50
     Davidson diagonalization with overlap
     ethr =  2.14E-09,  avg # of iterations =  1.0

     negative rho (up, down):  5.179E-03 4.838E-03

     total cpu time spent up to now is      533.3 secs

     total energy              =    -495.73710644 Ry
     estimated scf accuracy    <       0.00000430 Ry

     total magnetization       =     8.00 Bohr mag/cell
     absolute magnetization    =     8.78 Bohr mag/cell

     iteration #101     ecut=    48.00 Ry     beta= 0.50
     Davidson diagonalization with overlap
     ethr =  2.14E-09,  avg # of iterations =  1.0

     negative rho (up, down):  5.179E-03 4.838E-03

     total cpu time spent up to now is      538.1 secs

     total energy              =    -495.73710651 Ry
     estimated scf accuracy    <       0.00000435 Ry

     total magnetization       =     8.00 Bohr mag/cell
     absolute magnetization    =     8.78 Bohr mag/cell

     iteration #102     ecut=    48.00 Ry     beta= 0.50
     Davidson diagonalization with overlap
     ethr =  2.14E-09,  avg # of iterations =  1.0

     negative rho (up, down):  5.179E-03 4.838E-03

     total cpu time spent up to now is      542.9 secs

     total energy              =    -495.73710653 Ry
     estimated scf accuracy    <       0.00000476 Ry

     total magnetization       =     8.00 Bohr mag/cell
     absolute magnetization    =     8.78 Bohr mag/cell

     iteration #103     ecut=    48.00 Ry     beta= 0.50
     Davidson diagonalization with overlap
     ethr =  2.14E-09,  avg # of iterations =  1.0

     negative rho (up, down):  5.179E-03 4.838E-03

     total cpu time spent up to now is      547.7 secs

     total energy              =    -495.73710656 Ry
     estimated scf accuracy    <       0.00000502 Ry

     total magnetization       =     8.00 Bohr mag/cell
     absolute magnetization    =     8.78 Bohr mag/cell

     iteration #104     ecut=    48.00 Ry     beta= 0.50
     Davidson diagonalization with overlap
     ethr =  2.14E-09,  avg # of iterations =  1.0

     negative rho (up, down):  5.179E-03 4.838E-03

     total cpu time spent up to now is      552.5 secs

     total energy              =    -495.73710656 Ry
     estimated scf accuracy    <       0.00000554 Ry

     total magnetization       =     8.00 Bohr mag/cell
     absolute magnetization    =     8.78 Bohr mag/cell

     iteration #105     ecut=    48.00 Ry     beta= 0.50
     Davidson diagonalization with overlap
     ethr =  2.14E-09,  avg # of iterations =  1.0

     negative rho (up, down):  5.179E-03 4.839E-03

     total cpu time spent up to now is      557.3 secs

     total energy              =    -495.73710454 Ry
     estimated scf accuracy    <       0.00000559 Ry

     total magnetization       =     8.00 Bohr mag/cell
     absolute magnetization    =     8.78 Bohr mag/cell

     iteration #106     ecut=    48.00 Ry     beta= 0.50
     Davidson diagonalization with overlap
     ethr =  2.14E-09,  avg # of iterations =  6.5

     negative rho (up, down):  5.180E-03 4.838E-03

     total cpu time spent up to now is      563.7 secs

     total energy              =    -495.73710269 Ry
     estimated scf accuracy    <       0.00019929 Ry

     total magnetization       =     8.00 Bohr mag/cell
     absolute magnetization    =     8.78 Bohr mag/cell

     iteration #107     ecut=    48.00 Ry     beta= 0.50
     Davidson diagonalization with overlap
     ethr =  2.14E-09,  avg # of iterations =  7.5

     negative rho (up, down):  5.179E-03 4.838E-03

     total cpu time spent up to now is      570.2 secs

     total energy              =    -495.73710646 Ry
     estimated scf accuracy    <       0.00000121 Ry

     total magnetization       =     8.00 Bohr mag/cell
     absolute magnetization    =     8.78 Bohr mag/cell

     iteration #108     ecut=    48.00 Ry     beta= 0.50
     Davidson diagonalization with overlap
     ethr =  2.14E-09,  avg # of iterations =  1.0

     negative rho (up, down):  5.179E-03 4.838E-03

     total cpu time spent up to now is      575.0 secs

     total energy              =    -495.73710638 Ry
     estimated scf accuracy    <       0.00000152 Ry

     total magnetization       =     8.00 Bohr mag/cell
     absolute magnetization    =     8.78 Bohr mag/cell

     iteration #109     ecut=    48.00 Ry     beta= 0.50
     Davidson diagonalization with overlap
     ethr =  2.14E-09,  avg # of iterations =  1.0

     negative rho (up, down):  5.179E-03 4.838E-03

     total cpu time spent up to now is      579.8 secs

     total energy              =    -495.73710637 Ry
     estimated scf accuracy    <       0.00000122 Ry

     total magnetization       =     8.00 Bohr mag/cell
     absolute magnetization    =     8.78 Bohr mag/cell

     iteration #110     ecut=    48.00 Ry     beta= 0.50
     Davidson diagonalization with overlap
     ethr =  2.14E-09,  avg # of iterations =  1.0

     negative rho (up, down):  5.179E-03 4.838E-03

     total cpu time spent up to now is      584.6 secs

     total energy              =    -495.73710635 Ry
     estimated scf accuracy    <       0.00000087 Ry

     total magnetization       =     8.00 Bohr mag/cell
     absolute magnetization    =     8.78 Bohr mag/cell

     iteration #111     ecut=    48.00 Ry     beta= 0.50
     Davidson diagonalization with overlap
     ethr =  2.14E-09,  avg # of iterations =  1.0

     negative rho (up, down):  5.179E-03 4.838E-03

     total cpu time spent up to now is      589.4 secs

     total energy              =    -495.73710637 Ry
     estimated scf accuracy    <       0.00000081 Ry

     total magnetization       =     8.00 Bohr mag/cell
     absolute magnetization    =     8.78 Bohr mag/cell

     iteration #112     ecut=    48.00 Ry     beta= 0.50
     Davidson diagonalization with overlap
     ethr =  2.14E-09,  avg # of iterations =  1.0

     negative rho (up, down):  5.179E-03 4.838E-03

     total cpu time spent up to now is      594.2 secs

     total energy              =    -495.73710634 Ry
     estimated scf accuracy    <       0.00000083 Ry

     total magnetization       =     8.00 Bohr mag/cell
     absolute magnetization    =     8.78 Bohr mag/cell

     iteration #113     ecut=    48.00 Ry     beta= 0.50
     Davidson diagonalization with overlap
     ethr =  2.14E-09,  avg # of iterations =  1.0

     negative rho (up, down):  5.179E-03 4.838E-03

     total cpu time spent up to now is      599.0 secs

     total energy              =    -495.73710633 Ry
     estimated scf accuracy    <       0.00000059 Ry

     total magnetization       =     8.00 Bohr mag/cell
     absolute magnetization    =     8.78 Bohr mag/cell

     iteration #114     ecut=    48.00 Ry     beta= 0.50
     Davidson diagonalization with overlap
     ethr =  2.12E-09,  avg # of iterations =  1.5

     negative rho (up, down):  5.179E-03 4.838E-03

     total cpu time spent up to now is      603.9 secs

     total energy              =    -495.73710629 Ry
     estimated scf accuracy    <       0.00000038 Ry

     total magnetization       =     8.00 Bohr mag/cell
     absolute magnetization    =     8.78 Bohr mag/cell

     iteration #115     ecut=    48.00 Ry     beta= 0.50
     Davidson diagonalization with overlap
     ethr =  1.36E-09,  avg # of iterations =  5.0

     negative rho (up, down):  5.179E-03 4.838E-03

     total cpu time spent up to now is      609.4 secs

     total energy              =    -495.73710662 Ry
     estimated scf accuracy    <       0.00001861 Ry

     total magnetization       =     8.00 Bohr mag/cell
     absolute magnetization    =     8.78 Bohr mag/cell

     iteration #116     ecut=    48.00 Ry     beta= 0.50
     Davidson diagonalization with overlap
     ethr =  1.36E-09,  avg # of iterations =  1.0

     negative rho (up, down):  5.179E-03 4.838E-03

     total cpu time spent up to now is      614.2 secs

     total energy              =    -495.73710677 Ry
     estimated scf accuracy    <       0.00001830 Ry

     total magnetization       =     8.00 Bohr mag/cell
     absolute magnetization    =     8.78 Bohr mag/cell

     iteration #117     ecut=    48.00 Ry     beta= 0.50
     Davidson diagonalization with overlap
     ethr =  1.36E-09,  avg # of iterations =  1.0

     negative rho (up, down):  5.180E-03 4.838E-03

     total cpu time spent up to now is      619.0 secs

     total energy              =    -495.73710697 Ry
     estimated scf accuracy    <       0.00001989 Ry

     total magnetization       =     8.00 Bohr mag/cell
     absolute magnetization    =     8.78 Bohr mag/cell

     iteration #118     ecut=    48.00 Ry     beta= 0.50
     Davidson diagonalization with overlap
     ethr =  1.36E-09,  avg # of iterations =  4.7

     negative rho (up, down):  5.180E-03 4.838E-03

     total cpu time spent up to now is      624.5 secs

     total energy              =    -495.73710702 Ry
     estimated scf accuracy    <       0.00004352 Ry

     total magnetization       =     8.00 Bohr mag/cell
     absolute magnetization    =     8.78 Bohr mag/cell

     iteration #119     ecut=    48.00 Ry     beta= 0.50
     Davidson diagonalization with overlap
     ethr =  1.36E-09,  avg # of iterations =  1.0

     negative rho (up, down):  5.180E-03 4.838E-03

     total cpu time spent up to now is      629.3 secs

     total energy              =    -495.73710721 Ry
     estimated scf accuracy    <       0.00004361 Ry

     total magnetization       =     8.00 Bohr mag/cell
     absolute magnetization    =     8.78 Bohr mag/cell

     iteration #120     ecut=    48.00 Ry     beta= 0.50
     Davidson diagonalization with overlap
     ethr =  1.36E-09,  avg # of iterations =  2.4

     negative rho (up, down):  5.180E-03 4.838E-03

     total cpu time spent up to now is      634.3 secs

     total energy              =    -495.73710607 Ry
     estimated scf accuracy    <       0.00005869 Ry

     total magnetization       =     8.00 Bohr mag/cell
     absolute magnetization    =     8.78 Bohr mag/cell

     iteration #121     ecut=    48.00 Ry     beta= 0.50
     Davidson diagonalization with overlap
     ethr =  1.36E-09,  avg # of iterations =  5.3

     negative rho (up, down):  5.180E-03 4.838E-03

     total cpu time spent up to now is      640.1 secs

     total energy              =    -495.73710647 Ry
     estimated scf accuracy    <       0.00000742 Ry

     total magnetization       =     8.00 Bohr mag/cell
     absolute magnetization    =     8.78 Bohr mag/cell

     iteration #122     ecut=    48.00 Ry     beta= 0.50
     Davidson diagonalization with overlap
     ethr =  1.36E-09,  avg # of iterations =  1.0

     negative rho (up, down):  5.179E-03 4.838E-03

     total cpu time spent up to now is      644.9 secs

     total energy              =    -495.73710653 Ry
     estimated scf accuracy    <       0.00000732 Ry

     total magnetization       =     8.00 Bohr mag/cell
     absolute magnetization    =     8.78 Bohr mag/cell

     iteration #123     ecut=    48.00 Ry     beta= 0.50
     Davidson diagonalization with overlap
     ethr =  1.36E-09,  avg # of iterations =  1.0

     negative rho (up, down):  5.179E-03 4.838E-03

     total cpu time spent up to now is      649.7 secs

     total energy              =    -495.73710639 Ry
     estimated scf accuracy    <       0.00000733 Ry

     total magnetization       =     8.00 Bohr mag/cell
     absolute magnetization    =     8.78 Bohr mag/cell

     iteration #124     ecut=    48.00 Ry     beta= 0.50
     Davidson diagonalization with overlap
     ethr =  1.36E-09,  avg # of iterations =  1.0

     negative rho (up, down):  5.179E-03 4.838E-03

     total cpu time spent up to now is      654.5 secs

     total energy              =    -495.73710640 Ry
     estimated scf accuracy    <       0.00000610 Ry

     total magnetization       =     8.00 Bohr mag/cell
     absolute magnetization    =     8.78 Bohr mag/cell

     iteration #125     ecut=    48.00 Ry     beta= 0.50
     Davidson diagonalization with overlap
     ethr =  1.36E-09,  avg # of iterations =  1.0

     negative rho (up, down):  5.179E-03 4.838E-03

     total cpu time spent up to now is      659.3 secs

     total energy              =    -495.73710633 Ry
     estimated scf accuracy    <       0.00000598 Ry

     total magnetization       =     8.00 Bohr mag/cell
     absolute magnetization    =     8.78 Bohr mag/cell

     iteration #126     ecut=    48.00 Ry     beta= 0.50
     Davidson diagonalization with overlap
     ethr =  1.36E-09,  avg # of iterations =  1.9

     negative rho (up, down):  5.179E-03 4.838E-03

     total cpu time spent up to now is      664.3 secs

     total energy              =    -495.73710636 Ry
     estimated scf accuracy    <       0.00000376 Ry

     total magnetization       =     8.00 Bohr mag/cell
     absolute magnetization    =     8.78 Bohr mag/cell

     iteration #127     ecut=    48.00 Ry     beta= 0.50
     Davidson diagonalization with overlap
     ethr =  1.36E-09,  avg # of iterations =  1.0

     negative rho (up, down):  5.179E-03 4.838E-03

     total cpu time spent up to now is      669.1 secs

     total energy              =    -495.73710629 Ry
     estimated scf accuracy    <       0.00000368 Ry

     total magnetization       =     8.00 Bohr mag/cell
     absolute magnetization    =     8.78 Bohr mag/cell

     iteration #128     ecut=    48.00 Ry     beta= 0.50
     Davidson diagonalization with overlap
     ethr =  1.36E-09,  avg # of iterations =  4.6

     negative rho (up, down):  5.179E-03 4.838E-03

     total cpu time spent up to now is      674.5 secs

     total energy              =    -495.73710626 Ry
     estimated scf accuracy    <       0.00000147 Ry

     total magnetization       =     8.00 Bohr mag/cell
     absolute magnetization    =     8.78 Bohr mag/cell

     iteration #129     ecut=    48.00 Ry     beta= 0.50
     Davidson diagonalization with overlap
     ethr =  1.36E-09,  avg # of iterations =  4.8

     negative rho (up, down):  5.179E-03 4.838E-03

     total cpu time spent up to now is      680.0 secs

     total energy              =    -495.73710639 Ry
     estimated scf accuracy    <       0.00000574 Ry

     total magnetization       =     8.00 Bohr mag/cell
     absolute magnetization    =     8.78 Bohr mag/cell

     iteration #130     ecut=    48.00 Ry     beta= 0.50
     Davidson diagonalization with overlap
     ethr =  1.36E-09,  avg # of iterations =  1.0

     negative rho (up, down):  5.179E-03 4.838E-03

     total cpu time spent up to now is      684.8 secs

     total energy              =    -495.73710639 Ry
     estimated scf accuracy    <       0.00000505 Ry

     total magnetization       =     8.00 Bohr mag/cell
     absolute magnetization    =     8.78 Bohr mag/cell

     iteration #131     ecut=    48.00 Ry     beta= 0.50
     Davidson diagonalization with overlap
     ethr =  1.36E-09,  avg # of iterations =  1.0

     negative rho (up, down):  5.179E-03 4.838E-03

     total cpu time spent up to now is      689.6 secs

     total energy              =    -495.73710641 Ry
     estimated scf accuracy    <       0.00000491 Ry

     total magnetization       =     8.00 Bohr mag/cell
     absolute magnetization    =     8.78 Bohr mag/cell

     iteration #132     ecut=    48.00 Ry     beta= 0.50
     Davidson diagonalization with overlap
     ethr =  1.36E-09,  avg # of iterations =  1.0

     negative rho (up, down):  5.179E-03 4.838E-03

     total cpu time spent up to now is      694.4 secs

     total energy              =    -495.73710645 Ry
     estimated scf accuracy    <       0.00000474 Ry

     total magnetization       =     8.00 Bohr mag/cell
     absolute magnetization    =     8.78 Bohr mag/cell

     iteration #133     ecut=    48.00 Ry     beta= 0.50
     Davidson diagonalization with overlap
     ethr =  1.36E-09,  avg # of iterations =  1.1

     negative rho (up, down):  5.179E-03 4.838E-03

     total cpu time spent up to now is      699.2 secs

     total energy              =    -495.73710627 Ry
     estimated scf accuracy    <       0.00000530 Ry

     total magnetization       =     8.00 Bohr mag/cell
     absolute magnetization    =     8.78 Bohr mag/cell

     iteration #134     ecut=    48.00 Ry     beta= 0.50
     Davidson diagonalization with overlap
     ethr =  1.36E-09,  avg # of iterations =  4.3

     negative rho (up, down):  5.179E-03 4.838E-03

     total cpu time spent up to now is      704.6 secs

     total energy              =    -495.73710638 Ry
     estimated scf accuracy    <       0.00000065 Ry

     total magnetization       =     8.00 Bohr mag/cell
     absolute magnetization    =     8.78 Bohr mag/cell

     iteration #135     ecut=    48.00 Ry     beta= 0.50
     Davidson diagonalization with overlap
     ethr =  1.36E-09,  avg # of iterations =  1.0

     negative rho (up, down):  5.179E-03 4.838E-03

     total cpu time spent up to now is      709.5 secs

     total energy              =    -495.73710641 Ry
     estimated scf accuracy    <       0.00000050 Ry

     total magnetization       =     8.00 Bohr mag/cell
     absolute magnetization    =     8.78 Bohr mag/cell

     iteration #136     ecut=    48.00 Ry     beta= 0.50
     Davidson diagonalization with overlap
     ethr =  1.36E-09,  avg # of iterations =  1.1

     negative rho (up, down):  5.179E-03 4.838E-03

     total cpu time spent up to now is      714.3 secs

     total energy              =    -495.73710642 Ry
     estimated scf accuracy    <       0.00000088 Ry

     total magnetization       =     8.00 Bohr mag/cell
     absolute magnetization    =     8.78 Bohr mag/cell

     iteration #137     ecut=    48.00 Ry     beta= 0.50
     Davidson diagonalization with overlap
     ethr =  1.36E-09,  avg # of iterations =  1.0

     negative rho (up, down):  5.179E-03 4.838E-03

     total cpu time spent up to now is      719.1 secs

     total energy              =    -495.73710641 Ry
     estimated scf accuracy    <       0.00000090 Ry

     total magnetization       =     8.00 Bohr mag/cell
     absolute magnetization    =     8.78 Bohr mag/cell

     iteration #138     ecut=    48.00 Ry     beta= 0.50
     Davidson diagonalization with overlap
     ethr =  1.36E-09,  avg # of iterations =  1.0

     negative rho (up, down):  5.179E-03 4.838E-03

     total cpu time spent up to now is      723.9 secs

     total energy              =    -495.73710640 Ry
     estimated scf accuracy    <       0.00000083 Ry

     total magnetization       =     8.00 Bohr mag/cell
     absolute magnetization    =     8.78 Bohr mag/cell

     iteration #139     ecut=    48.00 Ry     beta= 0.50
     Davidson diagonalization with overlap
     ethr =  1.36E-09,  avg # of iterations =  1.0

     negative rho (up, down):  5.179E-03 4.838E-03

     total cpu time spent up to now is      728.7 secs

     total energy              =    -495.73710642 Ry
     estimated scf accuracy    <       0.00000080 Ry

     total magnetization       =     8.00 Bohr mag/cell
     absolute magnetization    =     8.78 Bohr mag/cell

     iteration #140     ecut=    48.00 Ry     beta= 0.50
     Davidson diagonalization with overlap
     ethr =  1.36E-09,  avg # of iterations =  1.0

     negative rho (up, down):  5.179E-03 4.838E-03

     total cpu time spent up to now is      733.5 secs

     total energy              =    -495.73710642 Ry
     estimated scf accuracy    <       0.00000096 Ry

     total magnetization       =     8.00 Bohr mag/cell
     absolute magnetization    =     8.78 Bohr mag/cell

     iteration #141     ecut=    48.00 Ry     beta= 0.50
     Davidson diagonalization with overlap
     ethr =  1.36E-09,  avg # of iterations =  1.0

     negative rho (up, down):  5.179E-03 4.838E-03

     total cpu time spent up to now is      738.3 secs

     total energy              =    -495.73710642 Ry
     estimated scf accuracy    <       0.00000097 Ry

     total magnetization       =     8.00 Bohr mag/cell
     absolute magnetization    =     8.78 Bohr mag/cell

     iteration #142     ecut=    48.00 Ry     beta= 0.50
     Davidson diagonalization with overlap
     ethr =  1.36E-09,  avg # of iterations =  1.0

     negative rho (up, down):  5.179E-03 4.838E-03

     total cpu time spent up to now is      743.1 secs

     total energy              =    -495.73710608 Ry
     estimated scf accuracy    <       0.00000097 Ry

     total magnetization       =     8.00 Bohr mag/cell
     absolute magnetization    =     8.78 Bohr mag/cell

     iteration #143     ecut=    48.00 Ry     beta= 0.50
     Davidson diagonalization with overlap
     ethr =  1.36E-09,  avg # of iterations =  5.7

     negative rho (up, down):  5.179E-03 4.838E-03

     total cpu time spent up to now is      749.1 secs

     total energy              =    -495.73710582 Ry
     estimated scf accuracy    <       0.00003796 Ry

     total magnetization       =     8.00 Bohr mag/cell
     absolute magnetization    =     8.78 Bohr mag/cell

     iteration #144     ecut=    48.00 Ry     beta= 0.50
     Davidson diagonalization with overlap
     ethr =  1.36E-09,  avg # of iterations =  5.7

     negative rho (up, down):  5.179E-03 4.838E-03
 
     Magnetic moment per site:
     atom:    1    charge:   12.7182    magn:    4.0402    constr:    0.0000
     atom:    2    charge:   12.7184    magn:    4.0405    constr:    0.0000

     total cpu time spent up to now is      754.8 secs

     End of self-consistent calculation

 ------ SPIN UP ------------


          k = 0.1667 0.2887 0.0000 ( 59267 PWs)   bands (ev):

   -76.3827 -76.3812 -47.9392 -47.9192 -47.6953 -47.6947 -47.6936 -47.6929
    -5.4156  -5.1402  -5.1397  -4.7819  -4.7813  -4.7073  -4.7073  -4.6629
    -4.6329  -4.6329

          k = 0.1667-0.4811 0.0000 ( 59291 PWs)   bands (ev):

   -76.3827 -76.3812 -47.9392 -47.9192 -47.6953 -47.6947 -47.6936 -47.6929
    -5.4147  -5.1401  -5.1397  -4.7818  -4.7813  -4.7074  -4.7070  -4.6610
    -4.6330  -4.6329

          k = 0.1667-0.0962 0.0000 ( 59226 PWs)   bands (ev):

   -76.3827 -76.3812 -47.9392 -47.9192 -47.6953 -47.6947 -47.6935 -47.6929
    -5.4165  -5.1403  -5.1397  -4.7819  -4.7812  -4.7075  -4.7072  -4.6648
    -4.6330  -4.6327

          k =-0.5000-0.8660 0.0000 ( 59292 PWs)   bands (ev):

   -76.3827 -76.3812 -47.9392 -47.9192 -47.6953 -47.6947 -47.6936 -47.6929
    -5.4049  -5.1394  -5.1389  -4.7832  -4.7826  -4.7072  -4.7072  -4.6600
    -4.6330  -4.6330

          k = 0.3333 0.0000 0.0000 ( 59267 PWs)   bands (ev):

   -76.3827 -76.3812 -47.9392 -47.9192 -47.6953 -47.6947 -47.6935 -47.6929
    -5.4091  -5.1397  -5.1391  -4.7828  -4.7821  -4.7074  -4.7072  -4.6623
    -4.6330  -4.6329

          k = 0.5000-0.0962 0.0000 ( 59291 PWs)   bands (ev):

   -76.3827 -76.3812 -47.9392 -47.9192 -47.6953 -47.6947 -47.6936 -47.6929
    -5.4049  -5.1394  -5.1389  -4.7832  -4.7826  -4.7072  -4.7072  -4.6601
    -4.6331  -4.6330

          k =-0.3333-0.3849 0.0000 ( 59291 PWs)   bands (ev):

   -76.3827 -76.3812 -47.9392 -47.9192 -47.6953 -47.6947 -47.6936 -47.6929
    -5.4082  -5.1397  -5.1392  -4.7827  -4.7821  -4.7072  -4.7071  -4.6604
    -4.6330  -4.6330

          k =-0.0000-0.1925 0.0000 ( 59226 PWs)   bands (ev):

   -76.3827 -76.3812 -47.9392 -47.9192 -47.6953 -47.6947 -47.6935 -47.6929
    -5.4197  -5.1405  -5.1399  -4.7815  -4.7808  -4.7075  -4.7073  -4.6650
    -4.6329  -4.6327

          k =-1.0000 0.0000 0.0000 ( 59292 PWs)   bands (ev):

   -76.3827 -76.3812 -47.9392 -47.9192 -47.6953 -47.6947 -47.6936 -47.6929
    -5.4179  -5.1404  -5.1399  -4.7814  -4.7808  -4.7075  -4.7070  -4.6612
    -4.6331  -4.6328

 ------ SPIN DOWN ----------


          k = 0.1667 0.2887 0.0000 ( 59267 PWs)   bands (ev):

   -72.3124 -72.3106 -44.2554 -44.2310 -43.5187 -43.5172 -43.5164 -43.5150
    -4.3959  -2.8912  -2.2909  -1.8250  -1.8239  -1.7595  -1.3393  -1.3301
    -1.2956  -1.2956

          k = 0.1667-0.4811 0.0000 ( 59291 PWs)   bands (ev):

   -72.3124 -72.3106 -44.2554 -44.2310 -43.5186 -43.5173 -43.5164 -43.5150
    -4.3911  -2.8991  -2.2840  -1.8240  -1.8240  -1.7600  -1.3360  -1.3324
    -1.3113  -1.2954

          k = 0.1667-0.0962 0.0000 ( 59226 PWs)   bands (ev):

   -72.3124 -72.3106 -44.2554 -44.2310 -43.5186 -43.5172 -43.5164 -43.5150
    -4.4006  -2.8830  -2.2969  -1.8262  -1.8239  -1.7591  -1.3405  -1.3254
    -1.3000  -1.2971

          k =-0.5000-0.8660 0.0000 ( 59292 PWs)   bands (ev):

   -72.3124 -72.3106 -44.2554 -44.2310 -43.5187 -43.5172 -43.5164 -43.5150
    -4.3609  -3.0555  -2.2868  -1.8212  -1.8202  -1.8074  -1.3496  -1.3383
    -1.3256  -1.3177

          k = 0.3333 0.0000 0.0000 ( 59267 PWs)   bands (ev):

   -72.3124 -72.3106 -44.2554 -44.2310 -43.5187 -43.5172 -43.5164 -43.5150
    -4.3764  -2.9984  -2.2917  -1.8236  -1.8215  -1.7963  -1.3346  -1.3280
    -1.3264  -1.3263

          k = 0.5000-0.0962 0.0000 ( 59291 PWs)   bands (ev):

   -72.3124 -72.3106 -44.2554 -44.2310 -43.5186 -43.5172 -43.5164 -43.5150
    -4.3609  -3.0553  -2.2865  -1.8216  -1.8203  -1.8075  -1.3477  -1.3368
    -1.3268  -1.3242

          k =-0.3333-0.3849 0.0000 ( 59291 PWs)   bands (ev):

   -72.3124 -72.3106 -44.2554 -44.2310 -43.5186 -43.5172 -43.5164 -43.5150
    -4.3714  -3.0064  -2.2859  -1.8222  -1.8215  -1.7969  -1.3450  -1.3327
    -1.3218  -1.3149

          k =-0.0000-0.1925 0.0000 ( 59226 PWs)   bands (ev):

   -72.3124 -72.3106 -44.2554 -44.2310 -43.5187 -43.5172 -43.5164 -43.5150
    -4.4098  -2.8227  -2.2968  -1.8270  -1.8251  -1.7172  -1.3889  -1.3373
    -1.3299  -1.2768

          k =-1.0000 0.0000 0.0000 ( 59292 PWs)   bands (ev):

   -72.3124 -72.3106 -44.2554 -44.2310 -43.5187 -43.5172 -43.5164 -43.5150
    -4.4004  -2.8393  -2.2830  -1.8252  -1.8249  -1.7171  -1.3894  -1.3363
    -1.3210  -1.2743

     the Fermi energy is    -2.4478 ev

!    total energy              =    -495.73710639 Ry

     total all-electron energy =     -4202.802463 Ry
     estimated scf accuracy    <       0.00000001 Ry
     smearing contrib. (-TS)   =      -0.00000000 Ry
     internal energy E=F+TS    =    -495.73710639 Ry

     The total energy is F=E-TS. E is the sum of the following terms:
     one-electron contribution =    -567.08488345 Ry
     hartree contribution      =     277.86097078 Ry
     xc contribution           =     -44.47997244 Ry
     ewald contribution        =     -13.65838755 Ry
     DFT-D3 Dispersion         =      -0.00358976 Ry
     one-center paw contrib.   =    -148.37124398 Ry

     total magnetization       =     8.00 Bohr mag/cell
     absolute magnetization    =     8.78 Bohr mag/cell

     convergence has been achieved in 144 iterations

     Writing output data file ./mytmp/2Cr0.16.save/
 
     init_run     :      4.08s CPU      4.50s WALL (       1 calls)
     electrons    :    656.39s CPU    750.28s WALL (       1 calls)

     Called by init_run:
     wfcinit      :      0.85s CPU      0.88s WALL (       1 calls)
     potinit      :      0.83s CPU      0.90s WALL (       1 calls)
     hinit0       :      0.77s CPU      0.85s WALL (       1 calls)

     Called by electrons:
     c_bands      :    281.63s CPU    300.68s WALL (     144 calls)
     sum_band     :    224.89s CPU    264.74s WALL (     144 calls)
     v_of_rho     :     44.47s CPU     49.70s WALL (     145 calls)
     newd         :     70.66s CPU     99.15s WALL (     145 calls)
     PAW_pot      :     18.88s CPU     19.91s WALL (     145 calls)
     mix_rho      :     11.02s CPU     11.21s WALL (     144 calls)

     Called by c_bands:
     init_us_2    :      4.42s CPU      4.59s WALL (    5202 calls)
     cegterg      :    265.61s CPU    284.24s WALL (    2592 calls)

     Called by *egterg:
     cdiaghg      :     24.26s CPU     31.74s WALL (    9677 calls)
     h_psi        :    203.86s CPU    212.15s WALL (    9695 calls)
     s_psi        :      4.18s CPU      4.29s WALL (    9695 calls)
     g_psi        :      0.60s CPU      0.64s WALL (    7085 calls)

     Called by h_psi:
     h_psi:calbec :      7.33s CPU      7.59s WALL (    9695 calls)
     vloc_psi     :    189.71s CPU    197.52s WALL (    9695 calls)
     add_vuspsi   :      5.52s CPU      5.72s WALL (    9695 calls)

     General routines
     calbec       :      9.85s CPU     10.18s WALL (   12287 calls)
     fft          :     37.95s CPU     41.20s WALL (    3619 calls)
     ffts         :      1.09s CPU      1.11s WALL (     578 calls)
     fftw         :    200.18s CPU    208.14s WALL (  258170 calls)
     interpolate  :      3.98s CPU      4.08s WALL (     290 calls)
 
     Parallel routines
     fft_scatt_xy :     37.66s CPU     38.90s WALL (  262367 calls)
     fft_scatt_yz :     92.08s CPU     98.35s WALL (  262367 calls)
 
     PWSCF        :  11m 1.05s CPU  12m35.66s WALL

 
   This run was terminated on:  19: 8:50  30Mar2021            

=------------------------------------------------------------------------------=
   JOB DONE.
=------------------------------------------------------------------------------=
