
     Program PWSCF v.6.7MaX starts on 30Mar2021 at 20:51:40 

     This program is part of the open-source Quantum ESPRESSO suite
     for quantum simulation of materials; please cite
         "P. Giannozzi et al., J. Phys.:Condens. Matter 21 395502 (2009);
         "P. Giannozzi et al., J. Phys.:Condens. Matter 29 465901 (2017);
          URL http://www.quantum-espresso.org", 
     in publications or presentations arising from this work. More details at
     http://www.quantum-espresso.org/quote

     Parallel version (MPI), running on    48 processors

     MPI processes distributed on     1 nodes
     R & G space division:  proc/nbgrp/npool/nimage =      48
     Reading input from 2Cr0.24.scf.in

     Current dimensions of program PWSCF are:
     Max number of different atomic species (ntypx) = 10
     Max number of k-points (npk) =  40000
     Max angular momentum in pseudopotentials (lmaxx) =  3
     file Cr.pbe-spn-kjpaw_psl.1.0.0.UPF: wavefunction(s)  3S 3P 3D renormalized
     file Cr.pbe-spn-kjpaw_psl.1.0.0.UPF: wavefunction(s)  3S 3P 3D renormalized

     --------------------------------------------
     Parameters for DFT-D3 Dispersion Correction:
     --------------------------------------------
       Reference C6 values for interpolation: 

         atom   Coordination number   C6
         Cr1        0.000          1381.48
         Cr1        1.827           571.38
         Cr1       10.619           306.69
         Cr2        0.000          1381.48
         Cr2        1.827           571.38
         Cr2       10.619           306.69

       Values used:

         atom   Coordination number  R0_AB[au]  C6      C8
         Cr1        0.003            3.252   1381.48 127495.28
         Cr2        0.003            3.252   1381.48 127495.28

         Molecular C6 ( Ry / a.u.^6 ) =      5525.93


     Subspace diagonalization in iterative solution of the eigenvalue problem:
     one sub-group per band group will be used
     scalapack distributed-memory algorithm (size of sub-group:  6*  6 procs)

 
     Parallelization info
     --------------------
     sticks:   dense  smooth     PW     G-vecs:    dense   smooth      PW
     Min         235      98     26                36277     9874    1408
     Max         236      99     27                36282     9883    1425
     Sum       11311    4741   1285              1741401   474235   68095
 


     bravais-lattice index     =            4
     lattice parameter (alat)  =      18.9275  a.u.
     unit-cell volume          =   10553.3021 (a.u.)^3
     number of atoms/cell      =            2
     number of atomic types    =            2
     number of electrons       =        28.00
     number of Kohn-Sham states=           18
     kinetic-energy cutoff     =      48.0000  Ry
     charge density cutoff     =     457.0000  Ry
     scf convergence threshold =      1.0E-07
     mixing beta               =       0.5000
     number of iterations used =            8  plain     mixing
     Exchange-correlation= SLA  PW   PBX  PBC
                           (   1   4   3   4   0   0   0)

     celldm(1)=  18.927497  celldm(2)=   0.000000  celldm(3)=   1.797125
     celldm(4)=   0.000000  celldm(5)=   0.000000  celldm(6)=   0.000000

     crystal axes: (cart. coord. in units of alat)
               a(1) = (   1.000000   0.000000   0.000000 )  
               a(2) = (  -0.500000   0.866025   0.000000 )  
               a(3) = (   0.000000   0.000000   1.797125 )  

     reciprocal axes: (cart. coord. in units 2 pi/alat)
               b(1) = (  1.000000  0.577350  0.000000 )  
               b(2) = (  0.000000  1.154701  0.000000 )  
               b(3) = (  0.000000  0.000000  0.556444 )  


     PseudoPot. # 1 for Cr read from file:
     /home/sf05/q-e-qe-6.7MaX-Release/pseudo/Cr.pbe-spn-kjpaw_psl.1.0.0.UPF
     MD5 check sum: 198f1a2427a48552563eee314eba32ba
     Pseudo is Projector augmented-wave + core cor, Zval = 14.0
     Generated using &quot;atomic&quot; code by A. Dal Corso  v.6.3
     Shape of augmentation charge: PSQ
     Using radial grid of 1183 points,  6 beta functions with: 
                l(1) =   0
                l(2) =   0
                l(3) =   1
                l(4) =   1
                l(5) =   2
                l(6) =   2
     Q(r) pseudized with 0 coefficients 


     PseudoPot. # 2 for Cr read from file:
     /home/sf05/q-e-qe-6.7MaX-Release/pseudo/Cr.pbe-spn-kjpaw_psl.1.0.0.UPF
     MD5 check sum: 198f1a2427a48552563eee314eba32ba
     Pseudo is Projector augmented-wave + core cor, Zval = 14.0
     Generated using &quot;atomic&quot; code by A. Dal Corso  v.6.3
     Shape of augmentation charge: PSQ
     Using radial grid of 1183 points,  6 beta functions with: 
                l(1) =   0
                l(2) =   0
                l(3) =   1
                l(4) =   1
                l(5) =   2
                l(6) =   2
     Q(r) pseudized with 0 coefficients 


     atomic species   valence    mass     pseudopotential
        Cr1           14.00    51.99610     Cr( 1.00)
        Cr2           14.00    51.99610     Cr( 1.00)

     Starting magnetic structure 
     atomic species   magnetization
        Cr1          1.000
        Cr2          1.000

      4 Sym. Ops. (no inversion) found ( 2 have fractional translation)



   Cartesian axes

     site n.     atom                  positions (alat units)
         1           Cr1 tau(   1) = (   0.4900000   0.4330127   0.8985623  )
         2           Cr2 tau(   2) = (   0.0100000   0.4330127   0.8985623  )

     number of k points=     9  Gaussian smearing, width (Ry)=  0.0000
                       cart. coord. in units 2pi/alat
        k(    1) = (   0.1666667   0.2886751   0.0000000), wk =   0.1481481
        k(    2) = (   0.1666667  -0.4811252   0.0000000), wk =   0.1481481
        k(    3) = (   0.1666667  -0.0962250   0.0000000), wk =   0.1481481
        k(    4) = (  -0.5000000  -0.8660254   0.0000000), wk =   0.0740741
        k(    5) = (   0.3333333   0.0000000   0.0000000), wk =   0.0740741
        k(    6) = (   0.5000000  -0.0962250   0.0000000), wk =   0.1481481
        k(    7) = (  -0.3333333  -0.3849002   0.0000000), wk =   0.1481481
        k(    8) = (  -0.0000000  -0.1924501   0.0000000), wk =   0.0740741
        k(    9) = (  -1.0000000   0.0000000   0.0000000), wk =   0.0370370

     Dense  grid:  1741401 G-vectors     FFT dimensions: ( 144, 135, 240)

     Smooth grid:   474235 G-vectors     FFT dimensions: (  90,  90, 160)

     Estimated max dynamical RAM per process >     152.07 MB

     Estimated total dynamical RAM >       7.13 GB
     Generating pointlists ...
     new r_m :   0.1980 (alat units)  3.7476 (a.u.) for type    1
     new r_m :   0.1980 (alat units)  3.7476 (a.u.) for type    2

     Initial potential from superposition of free atoms

     starting charge   27.99845, renormalised to   28.00000

     negative rho (up, down):  1.051E-02 5.279E-17
     Starting wfcs are   20 randomized atomic wfcs
     Checking if some PAW data can be deallocated... 

     total cpu time spent up to now is        4.7 secs

     Self-consistent Calculation

     iteration #  1     ecut=    48.00 Ry     beta= 0.50
     Davidson diagonalization with overlap
     ethr =  1.00E-02,  avg # of iterations =  8.0

     negative rho (up, down):  7.748E-03 0.000E+00

     total cpu time spent up to now is       12.4 secs

     total energy              =    -494.13722755 Ry
     estimated scf accuracy    <       4.72047855 Ry

     total magnetization       =     8.00 Bohr mag/cell
     absolute magnetization    =    10.79 Bohr mag/cell

     iteration #  2     ecut=    48.00 Ry     beta= 0.50
     Davidson diagonalization with overlap
     ethr =  1.00E-02,  avg # of iterations =  2.0

     negative rho (up, down):  1.430E-02 1.335E-04

     total cpu time spent up to now is       17.7 secs

     total energy              =    -495.44844197 Ry
     estimated scf accuracy    <       1.28790242 Ry

     total magnetization       =     8.00 Bohr mag/cell
     absolute magnetization    =     9.77 Bohr mag/cell

     iteration #  3     ecut=    48.00 Ry     beta= 0.50
     Davidson diagonalization with overlap
     ethr =  4.60E-03,  avg # of iterations =  1.0

     negative rho (up, down):  3.780E-02 2.157E-02

     total cpu time spent up to now is       22.5 secs

     total energy              =    -495.62778256 Ry
     estimated scf accuracy    <       0.22295617 Ry

     total magnetization       =     8.00 Bohr mag/cell
     absolute magnetization    =     9.44 Bohr mag/cell

     iteration #  4     ecut=    48.00 Ry     beta= 0.50
     Davidson diagonalization with overlap
     ethr =  7.96E-04,  avg # of iterations =  4.8

     negative rho (up, down):  1.855E-02 1.061E-02

     total cpu time spent up to now is       28.6 secs

     total energy              =    -495.64254286 Ry
     estimated scf accuracy    <       0.01227823 Ry

     total magnetization       =     8.00 Bohr mag/cell
     absolute magnetization    =     9.41 Bohr mag/cell

     iteration #  5     ecut=    48.00 Ry     beta= 0.50
     Davidson diagonalization with overlap
     c_bands:  1 eigenvalues not converged
     c_bands:  1 eigenvalues not converged
     ethr =  4.39E-05,  avg # of iterations = 15.1

     negative rho (up, down):  1.234E-02 5.091E-03

     total cpu time spent up to now is       38.0 secs

     total energy              =    -495.71368355 Ry
     estimated scf accuracy    <       0.36576103 Ry

     total magnetization       =     8.00 Bohr mag/cell
     absolute magnetization    =     8.30 Bohr mag/cell

     iteration #  6     ecut=    48.00 Ry     beta= 0.50
     Davidson diagonalization with overlap
     ethr =  4.39E-05,  avg # of iterations =  2.0

     negative rho (up, down):  1.184E-02 4.275E-03

     total cpu time spent up to now is       43.0 secs

     total energy              =    -495.71516018 Ry
     estimated scf accuracy    <       0.34575513 Ry

     total magnetization       =     8.00 Bohr mag/cell
     absolute magnetization    =     8.29 Bohr mag/cell

     iteration #  7     ecut=    48.00 Ry     beta= 0.50
     Davidson diagonalization with overlap
     ethr =  4.39E-05,  avg # of iterations =  1.0

     negative rho (up, down):  9.064E-03 4.423E-03

     total cpu time spent up to now is       47.9 secs

     total energy              =    -495.66972755 Ry
     estimated scf accuracy    <       0.34795894 Ry

     total magnetization       =     8.00 Bohr mag/cell
     absolute magnetization    =     8.29 Bohr mag/cell

     iteration #  8     ecut=    48.00 Ry     beta= 0.50
     Davidson diagonalization with overlap
     c_bands:  4 eigenvalues not converged
     c_bands:  1 eigenvalues not converged
     c_bands:  1 eigenvalues not converged
     c_bands:  2 eigenvalues not converged
     c_bands:  2 eigenvalues not converged
     ethr =  4.39E-05,  avg # of iterations = 17.0

     negative rho (up, down):  1.173E-02 4.869E-03

     total cpu time spent up to now is       57.3 secs

     total energy              =    -495.70038464 Ry
     estimated scf accuracy    <       0.84752190 Ry

     total magnetization       =     8.00 Bohr mag/cell
     absolute magnetization    =     8.26 Bohr mag/cell

     iteration #  9     ecut=    48.00 Ry     beta= 0.50
     Davidson diagonalization with overlap
     ethr =  4.39E-05,  avg # of iterations =  4.3

     negative rho (up, down):  1.286E-02 5.100E-03

     total cpu time spent up to now is       62.9 secs

     total energy              =    -495.70436622 Ry
     estimated scf accuracy    <       0.85796652 Ry

     total magnetization       =     8.00 Bohr mag/cell
     absolute magnetization    =     8.22 Bohr mag/cell

     iteration # 10     ecut=    48.00 Ry     beta= 0.50
     Davidson diagonalization with overlap
     ethr =  4.39E-05,  avg # of iterations =  1.0

     negative rho (up, down):  9.421E-03 5.015E-03

     total cpu time spent up to now is       67.7 secs

     total energy              =    -495.71247276 Ry
     estimated scf accuracy    <       0.86222717 Ry

     total magnetization       =     8.00 Bohr mag/cell
     absolute magnetization    =     8.22 Bohr mag/cell

     iteration # 11     ecut=    48.00 Ry     beta= 0.50
     Davidson diagonalization with overlap
     c_bands:  2 eigenvalues not converged
     c_bands:  2 eigenvalues not converged
     ethr =  4.39E-05,  avg # of iterations = 14.4

     negative rho (up, down):  6.398E-03 5.521E-03

     total cpu time spent up to now is       77.5 secs

     total energy              =    -495.79428287 Ry
     estimated scf accuracy    <       0.97147977 Ry

     total magnetization       =     8.00 Bohr mag/cell
     absolute magnetization    =     8.54 Bohr mag/cell

     iteration # 12     ecut=    48.00 Ry     beta= 0.50
     Davidson diagonalization with overlap
     ethr =  4.39E-05,  avg # of iterations =  4.9

     negative rho (up, down):  5.754E-03 6.047E-03

     total cpu time spent up to now is       83.4 secs

     total energy              =    -495.81364510 Ry
     estimated scf accuracy    <       2.27210858 Ry

     total magnetization       =     8.00 Bohr mag/cell
     absolute magnetization    =     8.11 Bohr mag/cell

     iteration # 13     ecut=    48.00 Ry     beta= 0.50
     Davidson diagonalization with overlap
     ethr =  4.39E-05,  avg # of iterations =  1.0

     negative rho (up, down):  6.140E-03 1.692E-02

     total cpu time spent up to now is       88.2 secs

     total energy              =    -495.99993745 Ry
     estimated scf accuracy    <       2.55169593 Ry

     total magnetization       =     8.00 Bohr mag/cell
     absolute magnetization    =     8.09 Bohr mag/cell

     iteration # 14     ecut=    48.00 Ry     beta= 0.50
     Davidson diagonalization with overlap
     ethr =  4.39E-05,  avg # of iterations =  8.3

     negative rho (up, down):  8.192E-03 2.020E-02

     total cpu time spent up to now is       95.2 secs

     total energy              =    -496.14931003 Ry
     estimated scf accuracy    <       9.45087837 Ry

     total magnetization       =     5.56 Bohr mag/cell
     absolute magnetization    =     5.71 Bohr mag/cell

     iteration # 15     ecut=    48.00 Ry     beta= 0.50
     Davidson diagonalization with overlap
     ethr =  4.39E-05,  avg # of iterations =  9.4
     Warning: too many iterations in bisection
     Ef =  -3.528454 sumk =  28.000000 electrons

     negative rho (up, down):  6.013E-03 5.421E-03

     total cpu time spent up to now is      102.1 secs

     total energy              =    -495.45209333 Ry
     estimated scf accuracy    <      33.37014331 Ry

     total magnetization       =     0.30 Bohr mag/cell
     absolute magnetization    =     0.86 Bohr mag/cell

     iteration # 16     ecut=    48.00 Ry     beta= 0.50
     Davidson diagonalization with overlap
     ethr =  4.39E-05,  avg # of iterations =  7.4

     negative rho (up, down):  8.961E-03 5.420E-03

     total cpu time spent up to now is      109.1 secs

     total energy              =    -495.38558441 Ry
     estimated scf accuracy    <       3.04276779 Ry

     total magnetization       =     8.00 Bohr mag/cell
     absolute magnetization    =     8.06 Bohr mag/cell

     iteration # 17     ecut=    48.00 Ry     beta= 0.50
     Davidson diagonalization with overlap
     c_bands:  1 eigenvalues not converged
     c_bands:  1 eigenvalues not converged
     c_bands:  3 eigenvalues not converged
     c_bands:  2 eigenvalues not converged
     c_bands:  4 eigenvalues not converged
     ethr =  4.39E-05,  avg # of iterations = 15.4

     negative rho (up, down):  7.935E-03 4.900E-03

     total cpu time spent up to now is      118.9 secs

     total energy              =    -495.67073006 Ry
     estimated scf accuracy    <       0.25694018 Ry

     total magnetization       =     8.00 Bohr mag/cell
     absolute magnetization    =     8.46 Bohr mag/cell

     iteration # 18     ecut=    48.00 Ry     beta= 0.50
     Davidson diagonalization with overlap
     ethr =  4.39E-05,  avg # of iterations =  7.8

     negative rho (up, down):  7.298E-03 4.588E-03

     total cpu time spent up to now is      125.5 secs

     total energy              =    -495.65186739 Ry
     estimated scf accuracy    <       0.57652946 Ry

     total magnetization       =     8.00 Bohr mag/cell
     absolute magnetization    =     8.44 Bohr mag/cell

     iteration # 19     ecut=    48.00 Ry     beta= 0.50
     Davidson diagonalization with overlap
     ethr =  4.39E-05,  avg # of iterations =  8.4

     negative rho (up, down):  6.998E-03 4.608E-03

     total cpu time spent up to now is      131.9 secs

     total energy              =    -495.65672710 Ry
     estimated scf accuracy    <       0.28459048 Ry

     total magnetization       =     8.00 Bohr mag/cell
     absolute magnetization    =     8.41 Bohr mag/cell

     iteration # 20     ecut=    48.00 Ry     beta= 0.50
     Davidson diagonalization with overlap
     ethr =  4.39E-05,  avg # of iterations =  1.0

     negative rho (up, down):  7.612E-03 4.856E-03

     total cpu time spent up to now is      136.7 secs

     total energy              =    -495.63529780 Ry
     estimated scf accuracy    <       0.28014684 Ry

     total magnetization       =     8.00 Bohr mag/cell
     absolute magnetization    =     8.41 Bohr mag/cell

     iteration # 21     ecut=    48.00 Ry     beta= 0.50
     Davidson diagonalization with overlap
     ethr =  4.39E-05,  avg # of iterations = 10.4

     negative rho (up, down):  6.456E-03 4.789E-03

     total cpu time spent up to now is      144.2 secs

     total energy              =    -495.66705188 Ry
     estimated scf accuracy    <       0.02832838 Ry

     total magnetization       =     8.00 Bohr mag/cell
     absolute magnetization    =     8.59 Bohr mag/cell

     iteration # 22     ecut=    48.00 Ry     beta= 0.50
     Davidson diagonalization with overlap
     ethr =  4.39E-05,  avg # of iterations =  1.8

     negative rho (up, down):  6.228E-03 5.147E-03

     total cpu time spent up to now is      149.2 secs

     total energy              =    -495.66356276 Ry
     estimated scf accuracy    <       0.03214751 Ry

     total magnetization       =     8.00 Bohr mag/cell
     absolute magnetization    =     8.58 Bohr mag/cell

     iteration # 23     ecut=    48.00 Ry     beta= 0.50
     Davidson diagonalization with overlap
     c_bands:  1 eigenvalues not converged
     ethr =  4.39E-05,  avg # of iterations = 12.9

     negative rho (up, down):  7.404E-03 5.077E-03

     total cpu time spent up to now is      157.1 secs

     total energy              =    -495.64761487 Ry
     estimated scf accuracy    <       0.16837049 Ry

     total magnetization       =     8.00 Bohr mag/cell
     absolute magnetization    =     8.25 Bohr mag/cell

     iteration # 24     ecut=    48.00 Ry     beta= 0.50
     Davidson diagonalization with overlap
     ethr =  4.39E-05,  avg # of iterations =  6.6

     negative rho (up, down):  5.739E-03 4.760E-03

     total cpu time spent up to now is      163.6 secs

     total energy              =    -495.65003648 Ry
     estimated scf accuracy    <       0.20129157 Ry

     total magnetization       =     8.00 Bohr mag/cell
     absolute magnetization    =     8.24 Bohr mag/cell

     iteration # 25     ecut=    48.00 Ry     beta= 0.50
     Davidson diagonalization with overlap
     c_bands:  1 eigenvalues not converged
     c_bands:  1 eigenvalues not converged
     c_bands:  4 eigenvalues not converged
     ethr =  4.39E-05,  avg # of iterations = 10.5

     negative rho (up, down):  6.226E-03 4.877E-03

     total cpu time spent up to now is      171.1 secs

     total energy              =    -495.63007585 Ry
     estimated scf accuracy    <       0.12928070 Ry

     total magnetization       =     8.00 Bohr mag/cell
     absolute magnetization    =     8.31 Bohr mag/cell

     iteration # 26     ecut=    48.00 Ry     beta= 0.50
     Davidson diagonalization with overlap
     ethr =  4.39E-05,  avg # of iterations = 10.4

     negative rho (up, down):  4.821E-03 4.759E-03

     total cpu time spent up to now is      178.4 secs

     total energy              =    -495.66688074 Ry
     estimated scf accuracy    <       0.14141615 Ry

     total magnetization       =     8.00 Bohr mag/cell
     absolute magnetization    =     8.87 Bohr mag/cell

     iteration # 27     ecut=    48.00 Ry     beta= 0.50
     Davidson diagonalization with overlap
     ethr =  4.39E-05,  avg # of iterations =  6.3

     negative rho (up, down):  4.829E-03 4.714E-03

     total cpu time spent up to now is      184.2 secs

     total energy              =    -495.66647950 Ry
     estimated scf accuracy    <       0.04636321 Ry

     total magnetization       =     8.00 Bohr mag/cell
     absolute magnetization    =     8.80 Bohr mag/cell

     iteration # 28     ecut=    48.00 Ry     beta= 0.50
     Davidson diagonalization with overlap
     ethr =  4.39E-05,  avg # of iterations =  2.3

     negative rho (up, down):  4.792E-03 4.702E-03

     total cpu time spent up to now is      189.3 secs

     total energy              =    -495.66369174 Ry
     estimated scf accuracy    <       0.03053371 Ry

     total magnetization       =     8.00 Bohr mag/cell
     absolute magnetization    =     8.78 Bohr mag/cell

     iteration # 29     ecut=    48.00 Ry     beta= 0.50
     Davidson diagonalization with overlap
     c_bands:  1 eigenvalues not converged
     c_bands:  4 eigenvalues not converged
     ethr =  4.39E-05,  avg # of iterations =  8.2

     negative rho (up, down):  5.275E-03 4.676E-03

     total cpu time spent up to now is      195.8 secs

     total energy              =    -495.66891121 Ry
     estimated scf accuracy    <       0.01412200 Ry

     total magnetization       =     8.00 Bohr mag/cell
     absolute magnetization    =     8.57 Bohr mag/cell

     iteration # 30     ecut=    48.00 Ry     beta= 0.50
     Davidson diagonalization with overlap
     ethr =  4.39E-05,  avg # of iterations =  4.1

     negative rho (up, down):  5.640E-03 4.683E-03

     total cpu time spent up to now is      201.2 secs

     total energy              =    -495.67699452 Ry
     estimated scf accuracy    <       0.12978521 Ry

     total magnetization       =     8.00 Bohr mag/cell
     absolute magnetization    =     8.61 Bohr mag/cell

     iteration # 31     ecut=    48.00 Ry     beta= 0.50
     Davidson diagonalization with overlap
     ethr =  4.39E-05,  avg # of iterations =  1.0

     negative rho (up, down):  6.123E-03 4.707E-03

     total cpu time spent up to now is      206.0 secs

     total energy              =    -495.68085146 Ry
     estimated scf accuracy    <       0.11842851 Ry

     total magnetization       =     8.00 Bohr mag/cell
     absolute magnetization    =     8.61 Bohr mag/cell

     iteration # 32     ecut=    48.00 Ry     beta= 0.50
     Davidson diagonalization with overlap
     ethr =  4.39E-05,  avg # of iterations =  1.1

     negative rho (up, down):  6.506E-03 4.683E-03

     total cpu time spent up to now is      210.8 secs

     total energy              =    -495.68192112 Ry
     estimated scf accuracy    <       0.12714548 Ry

     total magnetization       =     8.00 Bohr mag/cell
     absolute magnetization    =     8.61 Bohr mag/cell

     iteration # 33     ecut=    48.00 Ry     beta= 0.50
     Davidson diagonalization with overlap
     ethr =  4.39E-05,  avg # of iterations =  1.0

     negative rho (up, down):  6.633E-03 4.688E-03

     total cpu time spent up to now is      215.6 secs

     total energy              =    -495.68218472 Ry
     estimated scf accuracy    <       0.12893264 Ry

     total magnetization       =     8.00 Bohr mag/cell
     absolute magnetization    =     8.61 Bohr mag/cell

     iteration # 34     ecut=    48.00 Ry     beta= 0.50
     Davidson diagonalization with overlap
     ethr =  4.39E-05,  avg # of iterations =  1.0

     negative rho (up, down):  6.964E-03 4.672E-03

     total cpu time spent up to now is      220.4 secs

     total energy              =    -495.67523728 Ry
     estimated scf accuracy    <       0.13077390 Ry

     total magnetization       =     8.00 Bohr mag/cell
     absolute magnetization    =     8.61 Bohr mag/cell

     iteration # 35     ecut=    48.00 Ry     beta= 0.50
     Davidson diagonalization with overlap
     c_bands:  1 eigenvalues not converged
     c_bands:  1 eigenvalues not converged
     ethr =  4.39E-05,  avg # of iterations =  9.4

     negative rho (up, down):  7.002E-03 4.689E-03

     total cpu time spent up to now is      227.4 secs

     total energy              =    -495.66436728 Ry
     estimated scf accuracy    <       0.11722391 Ry

     total magnetization       =     8.00 Bohr mag/cell
     absolute magnetization    =     8.49 Bohr mag/cell

     iteration # 36     ecut=    48.00 Ry     beta= 0.50
     Davidson diagonalization with overlap
     c_bands:  3 eigenvalues not converged
     c_bands:  4 eigenvalues not converged
     c_bands:  1 eigenvalues not converged
     c_bands:  2 eigenvalues not converged
     c_bands:  2 eigenvalues not converged
     ethr =  4.39E-05,  avg # of iterations = 16.0

     negative rho (up, down):  7.571E-03 4.686E-03

     total cpu time spent up to now is      236.2 secs

     total energy              =    -495.72459472 Ry
     estimated scf accuracy    <       0.88920111 Ry

     total magnetization       =     8.00 Bohr mag/cell
     absolute magnetization    =     8.29 Bohr mag/cell

     iteration # 37     ecut=    48.00 Ry     beta= 0.50
     Davidson diagonalization with overlap
     ethr =  4.39E-05,  avg # of iterations =  2.9

     negative rho (up, down):  8.605E-03 4.770E-03

     total cpu time spent up to now is      241.4 secs

     total energy              =    -495.62132083 Ry
     estimated scf accuracy    <       0.92956185 Ry

     total magnetization       =     8.00 Bohr mag/cell
     absolute magnetization    =     8.29 Bohr mag/cell

     iteration # 38     ecut=    48.00 Ry     beta= 0.50
     Davidson diagonalization with overlap
     c_bands:  2 eigenvalues not converged
     c_bands:  4 eigenvalues not converged
     c_bands:  2 eigenvalues not converged
     ethr =  4.39E-05,  avg # of iterations = 16.6

     negative rho (up, down):  5.178E-03 4.802E-03

     total cpu time spent up to now is      250.8 secs

     total energy              =    -495.65457769 Ry
     estimated scf accuracy    <       0.06674311 Ry

     total magnetization       =     8.00 Bohr mag/cell
     absolute magnetization    =     8.48 Bohr mag/cell

     iteration # 39     ecut=    48.00 Ry     beta= 0.50
     Davidson diagonalization with overlap
     c_bands:  1 eigenvalues not converged
     c_bands:  1 eigenvalues not converged
     ethr =  4.39E-05,  avg # of iterations =  8.3

     negative rho (up, down):  4.815E-03 4.716E-03

     total cpu time spent up to now is      257.8 secs

     total energy              =    -495.66713878 Ry
     estimated scf accuracy    <       0.04444527 Ry

     total magnetization       =     8.00 Bohr mag/cell
     absolute magnetization    =     8.64 Bohr mag/cell

     iteration # 40     ecut=    48.00 Ry     beta= 0.50
     Davidson diagonalization with overlap
     ethr =  4.39E-05,  avg # of iterations =  7.6

     negative rho (up, down):  5.050E-03 4.688E-03

     total cpu time spent up to now is      263.9 secs

     total energy              =    -495.67017089 Ry
     estimated scf accuracy    <       0.03367346 Ry

     total magnetization       =     8.00 Bohr mag/cell
     absolute magnetization    =     8.88 Bohr mag/cell

     iteration # 41     ecut=    48.00 Ry     beta= 0.50
     Davidson diagonalization with overlap
     c_bands:  1 eigenvalues not converged
     c_bands:  1 eigenvalues not converged
     c_bands:  1 eigenvalues not converged
     ethr =  4.39E-05,  avg # of iterations = 13.2

     negative rho (up, down):  5.856E-03 4.683E-03

     total cpu time spent up to now is      271.7 secs

     total energy              =    -495.67920397 Ry
     estimated scf accuracy    <       0.28070862 Ry

     total magnetization       =     8.00 Bohr mag/cell
     absolute magnetization    =     8.68 Bohr mag/cell

     iteration # 42     ecut=    48.00 Ry     beta= 0.50
     Davidson diagonalization with overlap
     ethr =  4.39E-05,  avg # of iterations =  1.1

     negative rho (up, down):  7.965E-03 4.701E-03

     total cpu time spent up to now is      276.6 secs

     total energy              =    -495.67852153 Ry
     estimated scf accuracy    <       0.28193637 Ry

     total magnetization       =     8.00 Bohr mag/cell
     absolute magnetization    =     8.68 Bohr mag/cell

     iteration # 43     ecut=    48.00 Ry     beta= 0.50
     Davidson diagonalization with overlap
     ethr =  4.39E-05,  avg # of iterations =  1.0

     negative rho (up, down):  6.846E-03 4.694E-03

     total cpu time spent up to now is      281.4 secs

     total energy              =    -495.68335411 Ry
     estimated scf accuracy    <       0.28189894 Ry

     total magnetization       =     8.00 Bohr mag/cell
     absolute magnetization    =     8.67 Bohr mag/cell

     iteration # 44     ecut=    48.00 Ry     beta= 0.50
     Davidson diagonalization with overlap
     ethr =  4.39E-05,  avg # of iterations =  1.7

     negative rho (up, down):  7.325E-03 4.709E-03

     total cpu time spent up to now is      286.3 secs

     total energy              =    -495.65573390 Ry
     estimated scf accuracy    <       0.34266726 Ry

     total magnetization       =     8.00 Bohr mag/cell
     absolute magnetization    =     8.64 Bohr mag/cell

     iteration # 45     ecut=    48.00 Ry     beta= 0.50
     Davidson diagonalization with overlap
     c_bands:  1 eigenvalues not converged
     c_bands:  2 eigenvalues not converged
     ethr =  4.39E-05,  avg # of iterations =  9.7

     negative rho (up, down):  6.291E-03 4.772E-03

     total cpu time spent up to now is      293.3 secs

     total energy              =    -495.66990560 Ry
     estimated scf accuracy    <       0.02119570 Ry

     total magnetization       =     8.00 Bohr mag/cell
     absolute magnetization    =     8.77 Bohr mag/cell

     iteration # 46     ecut=    48.00 Ry     beta= 0.50
     Davidson diagonalization with overlap
     c_bands:  1 eigenvalues not converged
     ethr =  4.39E-05,  avg # of iterations =  6.8

     negative rho (up, down):  6.933E-03 4.746E-03

     total cpu time spent up to now is      299.3 secs

     total energy              =    -495.68191660 Ry
     estimated scf accuracy    <       0.04114359 Ry

     total magnetization       =     8.00 Bohr mag/cell
     absolute magnetization    =     8.94 Bohr mag/cell

     iteration # 47     ecut=    48.00 Ry     beta= 0.50
     Davidson diagonalization with overlap
     ethr =  4.39E-05,  avg # of iterations =  1.1

     negative rho (up, down):  7.611E-03 4.700E-03

     total cpu time spent up to now is      304.1 secs

     total energy              =    -495.67342206 Ry
     estimated scf accuracy    <       0.03938661 Ry

     total magnetization       =     8.00 Bohr mag/cell
     absolute magnetization    =     8.94 Bohr mag/cell

     iteration # 48     ecut=    48.00 Ry     beta= 0.50
     Davidson diagonalization with overlap
     c_bands:  2 eigenvalues not converged
     ethr =  4.39E-05,  avg # of iterations = 10.0

     negative rho (up, down):  6.371E-03 4.658E-03

     total cpu time spent up to now is      311.1 secs

     total energy              =    -495.68144356 Ry
     estimated scf accuracy    <       0.18247873 Ry

     total magnetization       =     8.00 Bohr mag/cell
     absolute magnetization    =     8.61 Bohr mag/cell

     iteration # 49     ecut=    48.00 Ry     beta= 0.50
     Davidson diagonalization with overlap
     ethr =  4.39E-05,  avg # of iterations =  3.4

     negative rho (up, down):  7.081E-03 4.647E-03

     total cpu time spent up to now is      316.6 secs

     total energy              =    -495.67435432 Ry
     estimated scf accuracy    <       0.18045675 Ry

     total magnetization       =     8.00 Bohr mag/cell
     absolute magnetization    =     8.60 Bohr mag/cell

     iteration # 50     ecut=    48.00 Ry     beta= 0.50
     Davidson diagonalization with overlap
     c_bands:  1 eigenvalues not converged
     ethr =  4.39E-05,  avg # of iterations =  8.5

     negative rho (up, down):  7.567E-03 4.651E-03

     total cpu time spent up to now is      323.1 secs

     total energy              =    -495.67456267 Ry
     estimated scf accuracy    <       0.13043597 Ry

     total magnetization       =     8.00 Bohr mag/cell
     absolute magnetization    =     8.52 Bohr mag/cell

     iteration # 51     ecut=    48.00 Ry     beta= 0.50
     Davidson diagonalization with overlap
     ethr =  4.39E-05,  avg # of iterations =  1.3

     negative rho (up, down):  6.281E-03 4.670E-03

     total cpu time spent up to now is      328.0 secs

     total energy              =    -495.66918678 Ry
     estimated scf accuracy    <       0.12116634 Ry

     total magnetization       =     8.00 Bohr mag/cell
     absolute magnetization    =     8.52 Bohr mag/cell

     iteration # 52     ecut=    48.00 Ry     beta= 0.50
     Davidson diagonalization with overlap
     ethr =  4.39E-05,  avg # of iterations =  6.2

     negative rho (up, down):  5.975E-03 4.636E-03

     total cpu time spent up to now is      333.9 secs

     total energy              =    -495.66911236 Ry
     estimated scf accuracy    <       0.05547928 Ry

     total magnetization       =     8.00 Bohr mag/cell
     absolute magnetization    =     8.62 Bohr mag/cell

     iteration # 53     ecut=    48.00 Ry     beta= 0.50
     Davidson diagonalization with overlap
     ethr =  4.39E-05,  avg # of iterations =  4.4

     negative rho (up, down):  4.913E-03 4.645E-03

     total cpu time spent up to now is      339.5 secs

     total energy              =    -495.67392892 Ry
     estimated scf accuracy    <       0.00400200 Ry

     total magnetization       =     8.00 Bohr mag/cell
     absolute magnetization    =     8.76 Bohr mag/cell

     iteration # 54     ecut=    48.00 Ry     beta= 0.50
     Davidson diagonalization with overlap
     c_bands:  4 eigenvalues not converged
     c_bands:  4 eigenvalues not converged
     c_bands:  3 eigenvalues not converged
     c_bands:  2 eigenvalues not converged
     c_bands:  1 eigenvalues not converged
     c_bands:  2 eigenvalues not converged
     c_bands:  2 eigenvalues not converged
     c_bands:  1 eigenvalues not converged
     ethr =  1.43E-05,  avg # of iterations = 13.6

     negative rho (up, down):  4.747E-03 4.621E-03

     total cpu time spent up to now is      347.9 secs

     total energy              =    -495.67592362 Ry
     estimated scf accuracy    <       0.04675992 Ry

     total magnetization       =     8.00 Bohr mag/cell
     absolute magnetization    =     9.02 Bohr mag/cell

     iteration # 55     ecut=    48.00 Ry     beta= 0.50
     Davidson diagonalization with overlap
     c_bands:  2 eigenvalues not converged
     c_bands:  1 eigenvalues not converged
     c_bands:  1 eigenvalues not converged
     c_bands:  1 eigenvalues not converged
     c_bands:  4 eigenvalues not converged
     c_bands:  1 eigenvalues not converged
     ethr =  1.43E-05,  avg # of iterations = 13.4

     negative rho (up, down):  6.291E-03 4.663E-03

     total cpu time spent up to now is      355.6 secs

     total energy              =    -495.67397324 Ry
     estimated scf accuracy    <       0.32823096 Ry

     total magnetization       =     8.00 Bohr mag/cell
     absolute magnetization    =     8.66 Bohr mag/cell

     iteration # 56     ecut=    48.00 Ry     beta= 0.50
     Davidson diagonalization with overlap
     c_bands:  1 eigenvalues not converged
     c_bands:  1 eigenvalues not converged
     ethr =  1.43E-05,  avg # of iterations =  7.8

     negative rho (up, down):  8.339E-03 4.636E-03

     total cpu time spent up to now is      361.6 secs

     total energy              =    -495.67912191 Ry
     estimated scf accuracy    <       0.11866911 Ry

     total magnetization       =     8.00 Bohr mag/cell
     absolute magnetization    =     8.85 Bohr mag/cell

     iteration # 57     ecut=    48.00 Ry     beta= 0.50
     Davidson diagonalization with overlap
     ethr =  1.43E-05,  avg # of iterations =  2.3

     negative rho (up, down):  9.370E-03 4.631E-03

     total cpu time spent up to now is      366.7 secs

     total energy              =    -495.68236110 Ry
     estimated scf accuracy    <       0.16639547 Ry

     total magnetization       =     8.00 Bohr mag/cell
     absolute magnetization    =     8.79 Bohr mag/cell

     iteration # 58     ecut=    48.00 Ry     beta= 0.50
     Davidson diagonalization with overlap
     ethr =  1.43E-05,  avg # of iterations =  2.9

     negative rho (up, down):  9.469E-03 4.635E-03

     total cpu time spent up to now is      371.8 secs

     total energy              =    -495.68232746 Ry
     estimated scf accuracy    <       0.21958039 Ry

     total magnetization       =     8.00 Bohr mag/cell
     absolute magnetization    =     8.75 Bohr mag/cell

     iteration # 59     ecut=    48.00 Ry     beta= 0.50
     Davidson diagonalization with overlap
     ethr =  1.43E-05,  avg # of iterations =  1.0

     negative rho (up, down):  9.310E-03 4.666E-03

     total cpu time spent up to now is      376.6 secs

     total energy              =    -495.67852600 Ry
     estimated scf accuracy    <       0.21880600 Ry

     total magnetization       =     8.00 Bohr mag/cell
     absolute magnetization    =     8.75 Bohr mag/cell

     iteration # 60     ecut=    48.00 Ry     beta= 0.50
     Davidson diagonalization with overlap
     ethr =  1.43E-05,  avg # of iterations =  2.1

     negative rho (up, down):  9.070E-03 4.647E-03

     total cpu time spent up to now is      381.6 secs

     total energy              =    -495.67864481 Ry
     estimated scf accuracy    <       0.16680025 Ry

     total magnetization       =     8.00 Bohr mag/cell
     absolute magnetization    =     8.80 Bohr mag/cell

     iteration # 61     ecut=    48.00 Ry     beta= 0.50
     Davidson diagonalization with overlap
     ethr =  1.43E-05,  avg # of iterations =  1.0

     negative rho (up, down):  9.847E-03 4.653E-03

     total cpu time spent up to now is      386.4 secs

     total energy              =    -495.67238734 Ry
     estimated scf accuracy    <       0.16421125 Ry

     total magnetization       =     8.00 Bohr mag/cell
     absolute magnetization    =     8.80 Bohr mag/cell

     iteration # 62     ecut=    48.00 Ry     beta= 0.50
     Davidson diagonalization with overlap
     c_bands:  1 eigenvalues not converged
     ethr =  1.43E-05,  avg # of iterations =  9.6

     negative rho (up, down):  8.854E-03 4.660E-03

     total cpu time spent up to now is      393.0 secs

     total energy              =    -495.66736201 Ry
     estimated scf accuracy    <       0.07392373 Ry

     total magnetization       =     8.00 Bohr mag/cell
     absolute magnetization    =     8.79 Bohr mag/cell

     iteration # 63     ecut=    48.00 Ry     beta= 0.50
     Davidson diagonalization with overlap
     c_bands:  2 eigenvalues not converged
     c_bands:  1 eigenvalues not converged
     c_bands:  1 eigenvalues not converged
     c_bands:  1 eigenvalues not converged
     c_bands:  1 eigenvalues not converged
     c_bands:  1 eigenvalues not converged
     c_bands:  1 eigenvalues not converged
     c_bands:  2 eigenvalues not converged
     ethr =  1.43E-05,  avg # of iterations = 17.8

     negative rho (up, down):  6.211E-03 4.665E-03

     total cpu time spent up to now is      402.3 secs

     total energy              =    -495.68576491 Ry
     estimated scf accuracy    <       0.46827956 Ry

     total magnetization       =     8.00 Bohr mag/cell
     absolute magnetization    =     8.35 Bohr mag/cell

     iteration # 64     ecut=    48.00 Ry     beta= 0.50
     Davidson diagonalization with overlap
     ethr =  1.43E-05,  avg # of iterations =  4.1

     negative rho (up, down):  6.513E-03 4.685E-03

     total cpu time spent up to now is      407.7 secs

     total energy              =    -495.67133659 Ry
     estimated scf accuracy    <       0.39342740 Ry

     total magnetization       =     8.00 Bohr mag/cell
     absolute magnetization    =     8.40 Bohr mag/cell

     iteration # 65     ecut=    48.00 Ry     beta= 0.50
     Davidson diagonalization with overlap
     c_bands:  2 eigenvalues not converged
     c_bands:  1 eigenvalues not converged
     c_bands:  1 eigenvalues not converged
     ethr =  1.43E-05,  avg # of iterations = 13.7

     negative rho (up, down):  5.584E-03 4.638E-03

     total cpu time spent up to now is      416.0 secs

     total energy              =    -495.67924001 Ry
     estimated scf accuracy    <       0.07576802 Ry

     total magnetization       =     8.00 Bohr mag/cell
     absolute magnetization    =     8.79 Bohr mag/cell

     iteration # 66     ecut=    48.00 Ry     beta= 0.50
     Davidson diagonalization with overlap
     ethr =  1.43E-05,  avg # of iterations =  1.4

     negative rho (up, down):  5.376E-03 4.645E-03

     total cpu time spent up to now is      420.9 secs

     total energy              =    -495.67508068 Ry
     estimated scf accuracy    <       0.07386154 Ry

     total magnetization       =     8.00 Bohr mag/cell
     absolute magnetization    =     8.79 Bohr mag/cell

     iteration # 67     ecut=    48.00 Ry     beta= 0.50
     Davidson diagonalization with overlap
     ethr =  1.43E-05,  avg # of iterations =  8.9

     negative rho (up, down):  5.374E-03 4.632E-03

     total cpu time spent up to now is      427.4 secs

     total energy              =    -495.67397210 Ry
     estimated scf accuracy    <       0.03967419 Ry

     total magnetization       =     8.00 Bohr mag/cell
     absolute magnetization    =     8.79 Bohr mag/cell

     iteration # 68     ecut=    48.00 Ry     beta= 0.50
     Davidson diagonalization with overlap
     c_bands:  1 eigenvalues not converged
     c_bands:  1 eigenvalues not converged
     ethr =  1.43E-05,  avg # of iterations = 11.5

     negative rho (up, down):  5.462E-03 4.630E-03

     total cpu time spent up to now is      434.4 secs

     total energy              =    -495.67730182 Ry
     estimated scf accuracy    <       0.08517025 Ry

     total magnetization       =     8.00 Bohr mag/cell
     absolute magnetization    =     8.90 Bohr mag/cell

     iteration # 69     ecut=    48.00 Ry     beta= 0.50
     Davidson diagonalization with overlap
     ethr =  1.43E-05,  avg # of iterations =  1.9

     negative rho (up, down):  6.817E-03 4.627E-03

     total cpu time spent up to now is      439.4 secs

     total energy              =    -495.67718436 Ry
     estimated scf accuracy    <       0.08277298 Ry

     total magnetization       =     8.00 Bohr mag/cell
     absolute magnetization    =     8.90 Bohr mag/cell

     iteration # 70     ecut=    48.00 Ry     beta= 0.50
     Davidson diagonalization with overlap
     ethr =  1.43E-05,  avg # of iterations =  1.0

     negative rho (up, down):  6.615E-03 4.637E-03

     total cpu time spent up to now is      444.2 secs

     total energy              =    -495.67532051 Ry
     estimated scf accuracy    <       0.08283016 Ry

     total magnetization       =     8.00 Bohr mag/cell
     absolute magnetization    =     8.90 Bohr mag/cell

     iteration # 71     ecut=    48.00 Ry     beta= 0.50
     Davidson diagonalization with overlap
     ethr =  1.43E-05,  avg # of iterations =  5.4

     negative rho (up, down):  7.874E-03 4.634E-03

     total cpu time spent up to now is      449.9 secs

     total energy              =    -495.67570707 Ry
     estimated scf accuracy    <       0.09353166 Ry

     total magnetization       =     8.00 Bohr mag/cell
     absolute magnetization    =     8.79 Bohr mag/cell

     iteration # 72     ecut=    48.00 Ry     beta= 0.50
     Davidson diagonalization with overlap
     ethr =  1.43E-05,  avg # of iterations =  1.7

     negative rho (up, down):  8.576E-03 4.634E-03

     total cpu time spent up to now is      454.9 secs

     total energy              =    -495.67501190 Ry
     estimated scf accuracy    <       0.09357762 Ry

     total magnetization       =     8.00 Bohr mag/cell
     absolute magnetization    =     8.77 Bohr mag/cell

     iteration # 73     ecut=    48.00 Ry     beta= 0.50
     Davidson diagonalization with overlap
     ethr =  1.43E-05,  avg # of iterations =  1.0

     negative rho (up, down):  8.177E-03 4.640E-03

     total cpu time spent up to now is      459.7 secs

     total energy              =    -495.67390706 Ry
     estimated scf accuracy    <       0.09099154 Ry

     total magnetization       =     8.00 Bohr mag/cell
     absolute magnetization    =     8.76 Bohr mag/cell

     iteration # 74     ecut=    48.00 Ry     beta= 0.50
     Davidson diagonalization with overlap
     ethr =  1.43E-05,  avg # of iterations =  1.1

     negative rho (up, down):  8.226E-03 4.630E-03

     total cpu time spent up to now is      464.5 secs

     total energy              =    -495.67252442 Ry
     estimated scf accuracy    <       0.08756359 Ry

     total magnetization       =     8.00 Bohr mag/cell
     absolute magnetization    =     8.77 Bohr mag/cell

     iteration # 75     ecut=    48.00 Ry     beta= 0.50
     Davidson diagonalization with overlap
     ethr =  1.43E-05,  avg # of iterations =  5.2

     negative rho (up, down):  5.823E-03 4.648E-03

     total cpu time spent up to now is      470.1 secs

     total energy              =    -495.67576006 Ry
     estimated scf accuracy    <       0.00314110 Ry

     total magnetization       =     8.00 Bohr mag/cell
     absolute magnetization    =     8.76 Bohr mag/cell

     iteration # 76     ecut=    48.00 Ry     beta= 0.50
     Davidson diagonalization with overlap
     ethr =  1.12E-05,  avg # of iterations =  2.1

     negative rho (up, down):  4.927E-03 4.606E-03

     total cpu time spent up to now is      475.1 secs

     total energy              =    -495.68236852 Ry
     estimated scf accuracy    <       0.03058121 Ry

     total magnetization       =     8.00 Bohr mag/cell
     absolute magnetization    =     8.77 Bohr mag/cell

     iteration # 77     ecut=    48.00 Ry     beta= 0.50
     Davidson diagonalization with overlap
     c_bands:  1 eigenvalues not converged
     c_bands:  2 eigenvalues not converged
     c_bands:  2 eigenvalues not converged
     c_bands:  4 eigenvalues not converged
     c_bands:  2 eigenvalues not converged
     ethr =  1.12E-05,  avg # of iterations = 14.9

     negative rho (up, down):  6.689E-03 4.578E-03

     total cpu time spent up to now is      484.0 secs

     total energy              =    -495.69304763 Ry
     estimated scf accuracy    <       0.47406586 Ry

     total magnetization       =     8.00 Bohr mag/cell
     absolute magnetization    =     8.68 Bohr mag/cell

     iteration # 78     ecut=    48.00 Ry     beta= 0.50
     Davidson diagonalization with overlap
     ethr =  1.12E-05,  avg # of iterations =  1.8

     negative rho (up, down):  9.006E-03 4.580E-03

     total cpu time spent up to now is      488.9 secs

     total energy              =    -495.69986481 Ry
     estimated scf accuracy    <       0.46742147 Ry

     total magnetization       =     8.00 Bohr mag/cell
     absolute magnetization    =     8.68 Bohr mag/cell

     iteration # 79     ecut=    48.00 Ry     beta= 0.50
     Davidson diagonalization with overlap
     c_bands:  1 eigenvalues not converged
     ethr =  1.12E-05,  avg # of iterations =  8.9

     negative rho (up, down):  9.395E-03 4.595E-03

     total cpu time spent up to now is      495.4 secs

     total energy              =    -495.69720538 Ry
     estimated scf accuracy    <       0.52763082 Ry

     total magnetization       =     8.00 Bohr mag/cell
     absolute magnetization    =     8.64 Bohr mag/cell

     iteration # 80     ecut=    48.00 Ry     beta= 0.50
     Davidson diagonalization with overlap
     ethr =  1.12E-05,  avg # of iterations =  4.2

     negative rho (up, down):  9.658E-03 4.618E-03

     total cpu time spent up to now is      501.1 secs

     total energy              =    -495.67281513 Ry
     estimated scf accuracy    <       0.50875543 Ry

     total magnetization       =     8.00 Bohr mag/cell
     absolute magnetization    =     8.67 Bohr mag/cell

     iteration # 81     ecut=    48.00 Ry     beta= 0.50
     Davidson diagonalization with overlap
     c_bands:  2 eigenvalues not converged
     ethr =  1.12E-05,  avg # of iterations = 13.7

     negative rho (up, down):  9.586E-03 4.595E-03

     total cpu time spent up to now is      509.2 secs

     total energy              =    -495.67929833 Ry
     estimated scf accuracy    <       0.21227343 Ry

     total magnetization       =     8.00 Bohr mag/cell
     absolute magnetization    =     8.71 Bohr mag/cell

     iteration # 82     ecut=    48.00 Ry     beta= 0.50
     Davidson diagonalization with overlap
     ethr =  1.12E-05,  avg # of iterations =  2.9

     negative rho (up, down):  9.213E-03 4.595E-03

     total cpu time spent up to now is      514.3 secs

     total energy              =    -495.67771665 Ry
     estimated scf accuracy    <       0.24223586 Ry

     total magnetization       =     8.00 Bohr mag/cell
     absolute magnetization    =     8.71 Bohr mag/cell

     iteration # 83     ecut=    48.00 Ry     beta= 0.50
     Davidson diagonalization with overlap
     ethr =  1.12E-05,  avg # of iterations =  2.3

     negative rho (up, down):  8.985E-03 4.627E-03

     total cpu time spent up to now is      519.4 secs

     total energy              =    -495.66941394 Ry
     estimated scf accuracy    <       0.23485541 Ry

     total magnetization       =     8.00 Bohr mag/cell
     absolute magnetization    =     8.71 Bohr mag/cell

     iteration # 84     ecut=    48.00 Ry     beta= 0.50
     Davidson diagonalization with overlap
     c_bands:  1 eigenvalues not converged
     c_bands:  1 eigenvalues not converged
     c_bands:  2 eigenvalues not converged
     ethr =  1.12E-05,  avg # of iterations = 11.3

     negative rho (up, down):  6.817E-03 4.639E-03

     total cpu time spent up to now is      526.6 secs

     total energy              =    -495.67053860 Ry
     estimated scf accuracy    <       0.02518822 Ry

     total magnetization       =     8.00 Bohr mag/cell
     absolute magnetization    =     8.66 Bohr mag/cell

     iteration # 85     ecut=    48.00 Ry     beta= 0.50
     Davidson diagonalization with overlap
     c_bands:  3 eigenvalues not converged
     c_bands:  3 eigenvalues not converged
     c_bands:  1 eigenvalues not converged
     c_bands:  2 eigenvalues not converged
     ethr =  1.12E-05,  avg # of iterations = 13.8

     negative rho (up, down):  6.413E-03 4.635E-03

     total cpu time spent up to now is      534.5 secs

     total energy              =    -495.68787457 Ry
     estimated scf accuracy    <       0.35012308 Ry

     total magnetization       =     8.00 Bohr mag/cell
     absolute magnetization    =     8.61 Bohr mag/cell

     iteration # 86     ecut=    48.00 Ry     beta= 0.50
     Davidson diagonalization with overlap
     c_bands:  3 eigenvalues not converged
     c_bands:  1 eigenvalues not converged
     ethr =  1.12E-05,  avg # of iterations =  6.9

     negative rho (up, down):  8.553E-03 4.656E-03

     total cpu time spent up to now is      540.7 secs

     total energy              =    -495.68971874 Ry
     estimated scf accuracy    <       0.38154259 Ry

     total magnetization       =     8.00 Bohr mag/cell
     absolute magnetization    =     8.62 Bohr mag/cell

     iteration # 87     ecut=    48.00 Ry     beta= 0.50
     Davidson diagonalization with overlap
     ethr =  1.12E-05,  avg # of iterations =  2.4

     negative rho (up, down):  1.102E-02 4.659E-03

     total cpu time spent up to now is      545.8 secs

     total energy              =    -495.69315294 Ry
     estimated scf accuracy    <       0.41101501 Ry

     total magnetization       =     8.00 Bohr mag/cell
     absolute magnetization    =     8.61 Bohr mag/cell

     iteration # 88     ecut=    48.00 Ry     beta= 0.50
     Davidson diagonalization with overlap
     c_bands:  3 eigenvalues not converged
     ethr =  1.12E-05,  avg # of iterations =  9.7

     negative rho (up, down):  1.011E-02 4.719E-03

     total cpu time spent up to now is      552.6 secs

     total energy              =    -495.68406038 Ry
     estimated scf accuracy    <       0.48213901 Ry

     total magnetization       =     8.00 Bohr mag/cell
     absolute magnetization    =     8.57 Bohr mag/cell

     iteration # 89     ecut=    48.00 Ry     beta= 0.50
     Davidson diagonalization with overlap
     ethr =  1.12E-05,  avg # of iterations =  4.8

     negative rho (up, down):  1.564E-02 6.052E-03

     total cpu time spent up to now is      558.3 secs

     total energy              =    -495.63585457 Ry
     estimated scf accuracy    <       0.40954617 Ry

     total magnetization       =     8.00 Bohr mag/cell
     absolute magnetization    =     8.58 Bohr mag/cell

     iteration # 90     ecut=    48.00 Ry     beta= 0.50
     Davidson diagonalization with overlap
     c_bands:  2 eigenvalues not converged
     c_bands:  1 eigenvalues not converged
     c_bands:  2 eigenvalues not converged
     c_bands:  1 eigenvalues not converged
     c_bands:  5 eigenvalues not converged
     c_bands:  1 eigenvalues not converged
     c_bands:  2 eigenvalues not converged
     c_bands:  5 eigenvalues not converged
     c_bands:  2 eigenvalues not converged
     ethr =  1.12E-05,  avg # of iterations = 15.6

     negative rho (up, down):  1.289E-02 4.811E-03

     total cpu time spent up to now is      568.3 secs

     total energy              =    -495.66568244 Ry
     estimated scf accuracy    <       0.07764110 Ry

     total magnetization       =     8.00 Bohr mag/cell
     absolute magnetization    =     8.61 Bohr mag/cell

     iteration # 91     ecut=    48.00 Ry     beta= 0.50
     Davidson diagonalization with overlap
     c_bands:  4 eigenvalues not converged
     c_bands:  2 eigenvalues not converged
     c_bands:  2 eigenvalues not converged
     c_bands:  4 eigenvalues not converged
     c_bands:  4 eigenvalues not converged
     c_bands:  5 eigenvalues not converged
     ethr =  1.12E-05,  avg # of iterations = 16.7

     negative rho (up, down):  1.026E-02 4.689E-03

     total cpu time spent up to now is      578.4 secs

     total energy              =    -495.65744887 Ry
     estimated scf accuracy    <       0.49204536 Ry

     total magnetization       =     8.00 Bohr mag/cell
     absolute magnetization    =     8.58 Bohr mag/cell

     iteration # 92     ecut=    48.00 Ry     beta= 0.50
     Davidson diagonalization with overlap
     c_bands:  2 eigenvalues not converged
     c_bands:  4 eigenvalues not converged
     ethr =  1.12E-05,  avg # of iterations = 12.8

     negative rho (up, down):  1.116E-02 4.645E-03

     total cpu time spent up to now is      586.9 secs

     total energy              =    -495.66705170 Ry
     estimated scf accuracy    <       0.24012025 Ry

     total magnetization       =     8.00 Bohr mag/cell
     absolute magnetization    =     8.62 Bohr mag/cell

     iteration # 93     ecut=    48.00 Ry     beta= 0.50
     Davidson diagonalization with overlap
     ethr =  1.12E-05,  avg # of iterations =  2.1

     negative rho (up, down):  1.200E-02 4.889E-03

     total cpu time spent up to now is      591.9 secs

     total energy              =    -495.65406950 Ry
     estimated scf accuracy    <       0.22096876 Ry

     total magnetization       =     8.00 Bohr mag/cell
     absolute magnetization    =     8.65 Bohr mag/cell

     iteration # 94     ecut=    48.00 Ry     beta= 0.50
     Davidson diagonalization with overlap
     c_bands:  3 eigenvalues not converged
     c_bands:  4 eigenvalues not converged
     c_bands:  2 eigenvalues not converged
     c_bands:  1 eigenvalues not converged
     c_bands:  3 eigenvalues not converged
     c_bands:  1 eigenvalues not converged
     ethr =  1.12E-05,  avg # of iterations = 16.1

     negative rho (up, down):  1.156E-02 4.704E-03

     total cpu time spent up to now is      601.6 secs

     total energy              =    -495.65923806 Ry
     estimated scf accuracy    <       0.12208437 Ry

     total magnetization       =     8.00 Bohr mag/cell
     absolute magnetization    =     8.45 Bohr mag/cell

     iteration # 95     ecut=    48.00 Ry     beta= 0.50
     Davidson diagonalization with overlap
     c_bands:  2 eigenvalues not converged
     c_bands:  3 eigenvalues not converged
     c_bands:  4 eigenvalues not converged
     c_bands:  1 eigenvalues not converged
     c_bands:  1 eigenvalues not converged
     c_bands:  2 eigenvalues not converged
     c_bands:  2 eigenvalues not converged
     ethr =  1.12E-05,  avg # of iterations = 15.0

     negative rho (up, down):  1.019E-02 4.731E-03

     total cpu time spent up to now is      611.5 secs

     total energy              =    -495.65434086 Ry
     estimated scf accuracy    <       0.21083369 Ry

     total magnetization       =     8.00 Bohr mag/cell
     absolute magnetization    =     8.70 Bohr mag/cell

     iteration # 96     ecut=    48.00 Ry     beta= 0.50
     Davidson diagonalization with overlap
     c_bands:  1 eigenvalues not converged
     c_bands:  1 eigenvalues not converged
     ethr =  1.12E-05,  avg # of iterations = 13.6

     negative rho (up, down):  9.801E-03 4.691E-03

     total cpu time spent up to now is      620.3 secs

     total energy              =    -495.66679184 Ry
     estimated scf accuracy    <       0.06248518 Ry

     total magnetization       =     8.00 Bohr mag/cell
     absolute magnetization    =     8.59 Bohr mag/cell

     iteration # 97     ecut=    48.00 Ry     beta= 0.50
     Davidson diagonalization with overlap
     c_bands:  1 eigenvalues not converged
     c_bands:  2 eigenvalues not converged
     ethr =  1.12E-05,  avg # of iterations =  8.3

     negative rho (up, down):  8.911E-03 4.712E-03

     total cpu time spent up to now is      626.8 secs

     total energy              =    -495.66915548 Ry
     estimated scf accuracy    <       0.05723141 Ry

     total magnetization       =     8.00 Bohr mag/cell
     absolute magnetization    =     8.67 Bohr mag/cell

     iteration # 98     ecut=    48.00 Ry     beta= 0.50
     Davidson diagonalization with overlap
     ethr =  1.12E-05,  avg # of iterations =  3.3

     negative rho (up, down):  1.108E-02 4.762E-03

     total cpu time spent up to now is      632.2 secs

     total energy              =    -495.67724897 Ry
     estimated scf accuracy    <       0.07041741 Ry

     total magnetization       =     8.00 Bohr mag/cell
     absolute magnetization    =     8.71 Bohr mag/cell

     iteration # 99     ecut=    48.00 Ry     beta= 0.50
     Davidson diagonalization with overlap
     c_bands:  1 eigenvalues not converged
     c_bands:  1 eigenvalues not converged
     c_bands:  1 eigenvalues not converged
     c_bands:  1 eigenvalues not converged
     c_bands:  1 eigenvalues not converged
     c_bands:  4 eigenvalues not converged
     c_bands:  4 eigenvalues not converged
     c_bands:  3 eigenvalues not converged
     c_bands:  2 eigenvalues not converged
     c_bands:  2 eigenvalues not converged
     c_bands:  1 eigenvalues not converged
     c_bands:  5 eigenvalues not converged
     c_bands:  5 eigenvalues not converged
     ethr =  1.12E-05,  avg # of iterations = 19.5

     negative rho (up, down):  1.312E-02 4.741E-03

     total cpu time spent up to now is      643.2 secs

     total energy              =    -495.64417754 Ry
     estimated scf accuracy    <       0.71414066 Ry

     total magnetization       =     8.00 Bohr mag/cell
     absolute magnetization    =     8.38 Bohr mag/cell

     iteration #100     ecut=    48.00 Ry     beta= 0.50
     Davidson diagonalization with overlap
     c_bands:  1 eigenvalues not converged
     c_bands:  4 eigenvalues not converged
     c_bands:  2 eigenvalues not converged
     c_bands:  5 eigenvalues not converged
     c_bands:  2 eigenvalues not converged
     c_bands:  2 eigenvalues not converged
     c_bands:  1 eigenvalues not converged
     c_bands:  2 eigenvalues not converged
     c_bands:  1 eigenvalues not converged
     ethr =  1.12E-05,  avg # of iterations = 17.9

     negative rho (up, down):  1.340E-02 4.945E-03

     total cpu time spent up to now is      653.9 secs

     total energy              =    -495.66687988 Ry
     estimated scf accuracy    <       0.03351132 Ry

     total magnetization       =     8.00 Bohr mag/cell
     absolute magnetization    =     8.63 Bohr mag/cell

     iteration #101     ecut=    48.00 Ry     beta= 0.50
     Davidson diagonalization with overlap
     c_bands:  3 eigenvalues not converged
     c_bands:  2 eigenvalues not converged
     c_bands:  1 eigenvalues not converged
     ethr =  1.12E-05,  avg # of iterations = 11.6

     negative rho (up, down):  6.817E-03 4.884E-03

     total cpu time spent up to now is      661.8 secs

     total energy              =    -495.67272807 Ry
     estimated scf accuracy    <       0.08713653 Ry

     total magnetization       =     8.00 Bohr mag/cell
     absolute magnetization    =     8.56 Bohr mag/cell

     iteration #102     ecut=    48.00 Ry     beta= 0.50
     Davidson diagonalization with overlap
     ethr =  1.12E-05,  avg # of iterations =  7.7

     negative rho (up, down):  7.100E-03 4.816E-03

     total cpu time spent up to now is      668.4 secs

     total energy              =    -495.67413340 Ry
     estimated scf accuracy    <       0.07279792 Ry

     total magnetization       =     8.00 Bohr mag/cell
     absolute magnetization    =     8.54 Bohr mag/cell

     iteration #103     ecut=    48.00 Ry     beta= 0.50
     Davidson diagonalization with overlap
     ethr =  1.12E-05,  avg # of iterations =  1.0

     negative rho (up, down):  9.329E-03 4.944E-03

     total cpu time spent up to now is      673.2 secs

     total energy              =    -495.67241955 Ry
     estimated scf accuracy    <       0.07256018 Ry

     total magnetization       =     8.00 Bohr mag/cell
     absolute magnetization    =     8.53 Bohr mag/cell

     iteration #104     ecut=    48.00 Ry     beta= 0.50
     Davidson diagonalization with overlap
     ethr =  1.12E-05,  avg # of iterations =  7.2

     negative rho (up, down):  1.230E-02 6.117E-03

     total cpu time spent up to now is      679.4 secs

     total energy              =    -495.66032141 Ry
     estimated scf accuracy    <       0.07167706 Ry

     total magnetization       =     8.00 Bohr mag/cell
     absolute magnetization    =     8.51 Bohr mag/cell

     iteration #105     ecut=    48.00 Ry     beta= 0.50
     Davidson diagonalization with overlap
     c_bands:  1 eigenvalues not converged
     c_bands:  3 eigenvalues not converged
     c_bands:  2 eigenvalues not converged
     c_bands:  1 eigenvalues not converged
     c_bands:  1 eigenvalues not converged
     ethr =  1.12E-05,  avg # of iterations = 17.2

     negative rho (up, down):  1.095E-02 4.980E-03

     total cpu time spent up to now is      689.7 secs

     total energy              =    -495.65712843 Ry
     estimated scf accuracy    <       0.60916627 Ry

     total magnetization       =     8.00 Bohr mag/cell
     absolute magnetization    =     8.67 Bohr mag/cell

     iteration #106     ecut=    48.00 Ry     beta= 0.50
     Davidson diagonalization with overlap
     c_bands:  1 eigenvalues not converged
     c_bands:  4 eigenvalues not converged
     c_bands:  3 eigenvalues not converged
     c_bands:  1 eigenvalues not converged
     c_bands:  2 eigenvalues not converged
     c_bands:  1 eigenvalues not converged
     c_bands:  3 eigenvalues not converged
     c_bands:  1 eigenvalues not converged
     c_bands:  3 eigenvalues not converged
     c_bands:  3 eigenvalues not converged
     ethr =  1.12E-05,  avg # of iterations = 18.3

     negative rho (up, down):  9.604E-03 4.858E-03

     total cpu time spent up to now is      700.7 secs

     total energy              =    -495.66244588 Ry
     estimated scf accuracy    <       0.18869157 Ry

     total magnetization       =     8.00 Bohr mag/cell
     absolute magnetization    =     8.68 Bohr mag/cell

     iteration #107     ecut=    48.00 Ry     beta= 0.50
     Davidson diagonalization with overlap
     c_bands:  3 eigenvalues not converged
     c_bands:  3 eigenvalues not converged
     c_bands:  4 eigenvalues not converged
     c_bands:  1 eigenvalues not converged
     c_bands:  2 eigenvalues not converged
     c_bands:  1 eigenvalues not converged
     c_bands:  1 eigenvalues not converged
     c_bands:  1 eigenvalues not converged
     ethr =  1.12E-05,  avg # of iterations = 14.3

     negative rho (up, down):  5.703E-03 4.666E-03

     total cpu time spent up to now is      709.4 secs

     total energy              =    -495.67022869 Ry
     estimated scf accuracy    <       0.00975458 Ry

     total magnetization       =     8.00 Bohr mag/cell
     absolute magnetization    =     8.71 Bohr mag/cell

     iteration #108     ecut=    48.00 Ry     beta= 0.50
     Davidson diagonalization with overlap
     c_bands:  1 eigenvalues not converged
     ethr =  1.12E-05,  avg # of iterations =  8.0

     negative rho (up, down):  6.434E-03 4.691E-03

     total cpu time spent up to now is      715.7 secs

     total energy              =    -495.67263696 Ry
     estimated scf accuracy    <       0.02066316 Ry

     total magnetization       =     8.00 Bohr mag/cell
     absolute magnetization    =     8.65 Bohr mag/cell

     iteration #109     ecut=    48.00 Ry     beta= 0.50
     Davidson diagonalization with overlap
     ethr =  1.12E-05,  avg # of iterations =  2.4

     negative rho (up, down):  6.699E-03 4.611E-03

     total cpu time spent up to now is      720.7 secs

     total energy              =    -495.67177047 Ry
     estimated scf accuracy    <       0.02592249 Ry

     total magnetization       =     8.00 Bohr mag/cell
     absolute magnetization    =     8.65 Bohr mag/cell

     iteration #110     ecut=    48.00 Ry     beta= 0.50
     Davidson diagonalization with overlap
     ethr =  1.12E-05,  avg # of iterations =  7.4

     negative rho (up, down):  1.017E-02 4.621E-03

     total cpu time spent up to now is      727.0 secs

     total energy              =    -495.67166579 Ry
     estimated scf accuracy    <       0.00680967 Ry

     total magnetization       =     8.00 Bohr mag/cell
     absolute magnetization    =     8.67 Bohr mag/cell

     iteration #111     ecut=    48.00 Ry     beta= 0.50
     Davidson diagonalization with overlap
     c_bands:  3 eigenvalues not converged
     c_bands:  2 eigenvalues not converged
     c_bands:  1 eigenvalues not converged
     ethr =  1.12E-05,  avg # of iterations = 11.7

     negative rho (up, down):  1.038E-02 5.003E-03

     total cpu time spent up to now is      734.1 secs

     total energy              =    -495.66580017 Ry
     estimated scf accuracy    <       0.14485423 Ry

     total magnetization       =     8.00 Bohr mag/cell
     absolute magnetization    =     8.53 Bohr mag/cell

     iteration #112     ecut=    48.00 Ry     beta= 0.50
     Davidson diagonalization with overlap
     c_bands:  1 eigenvalues not converged
     c_bands:  1 eigenvalues not converged
     c_bands:  1 eigenvalues not converged
     ethr =  1.12E-05,  avg # of iterations = 12.8

     negative rho (up, down):  9.356E-03 4.732E-03

     total cpu time spent up to now is      742.8 secs

     total energy              =    -495.67692747 Ry
     estimated scf accuracy    <       0.29811019 Ry

     total magnetization       =     8.00 Bohr mag/cell
     absolute magnetization    =     8.59 Bohr mag/cell

     iteration #113     ecut=    48.00 Ry     beta= 0.50
     Davidson diagonalization with overlap
     ethr =  1.12E-05,  avg # of iterations =  1.1

     negative rho (up, down):  9.144E-03 4.655E-03

     total cpu time spent up to now is      747.6 secs

     total energy              =    -495.67782971 Ry
     estimated scf accuracy    <       0.29696364 Ry

     total magnetization       =     8.00 Bohr mag/cell
     absolute magnetization    =     8.59 Bohr mag/cell

     iteration #114     ecut=    48.00 Ry     beta= 0.50
     Davidson diagonalization with overlap
     ethr =  1.12E-05,  avg # of iterations =  2.9

     negative rho (up, down):  9.498E-03 4.662E-03

     total cpu time spent up to now is      752.9 secs

     total energy              =    -495.67404887 Ry
     estimated scf accuracy    <       0.28401749 Ry

     total magnetization       =     8.00 Bohr mag/cell
     absolute magnetization    =     8.59 Bohr mag/cell

     iteration #115     ecut=    48.00 Ry     beta= 0.50
     Davidson diagonalization with overlap
     ethr =  1.12E-05,  avg # of iterations =  2.9

     negative rho (up, down):  9.698E-03 4.673E-03

     total cpu time spent up to now is      758.0 secs

     total energy              =    -495.67055104 Ry
     estimated scf accuracy    <       0.27094396 Ry

     total magnetization       =     8.00 Bohr mag/cell
     absolute magnetization    =     8.59 Bohr mag/cell

     iteration #116     ecut=    48.00 Ry     beta= 0.50
     Davidson diagonalization with overlap
     ethr =  1.12E-05,  avg # of iterations =  3.6

     negative rho (up, down):  9.062E-03 4.658E-03

     total cpu time spent up to now is      763.2 secs

     total energy              =    -495.67443155 Ry
     estimated scf accuracy    <       0.17322940 Ry

     total magnetization       =     8.00 Bohr mag/cell
     absolute magnetization    =     8.63 Bohr mag/cell

     iteration #117     ecut=    48.00 Ry     beta= 0.50
     Davidson diagonalization with overlap
     ethr =  1.12E-05,  avg # of iterations =  1.2

     negative rho (up, down):  8.497E-03 4.671E-03

     total cpu time spent up to now is      768.1 secs

     total energy              =    -495.67272436 Ry
     estimated scf accuracy    <       0.18306333 Ry

     total magnetization       =     8.00 Bohr mag/cell
     absolute magnetization    =     8.63 Bohr mag/cell

     iteration #118     ecut=    48.00 Ry     beta= 0.50
     Davidson diagonalization with overlap
     ethr =  1.12E-05,  avg # of iterations =  1.0

     negative rho (up, down):  8.096E-03 4.663E-03

     total cpu time spent up to now is      772.9 secs

     total energy              =    -495.67243419 Ry
     estimated scf accuracy    <       0.17786940 Ry

     total magnetization       =     8.00 Bohr mag/cell
     absolute magnetization    =     8.63 Bohr mag/cell

     iteration #119     ecut=    48.00 Ry     beta= 0.50
     Davidson diagonalization with overlap
     ethr =  1.12E-05,  avg # of iterations =  1.0

     negative rho (up, down):  6.561E-03 5.842E-03

     total cpu time spent up to now is      777.7 secs

     total energy              =    -495.64537557 Ry
     estimated scf accuracy    <       0.17570350 Ry

     total magnetization       =     8.00 Bohr mag/cell
     absolute magnetization    =     8.63 Bohr mag/cell

     iteration #120     ecut=    48.00 Ry     beta= 0.50
     Davidson diagonalization with overlap
     c_bands:  1 eigenvalues not converged
     c_bands:  4 eigenvalues not converged
     c_bands:  5 eigenvalues not converged
     c_bands:  2 eigenvalues not converged
     c_bands:  3 eigenvalues not converged
     c_bands:  1 eigenvalues not converged
     c_bands:  2 eigenvalues not converged
     ethr =  1.12E-05,  avg # of iterations = 16.3

     negative rho (up, down):  4.974E-03 4.692E-03

     total cpu time spent up to now is      787.6 secs

     total energy              =    -495.68209697 Ry
     estimated scf accuracy    <       0.12878010 Ry

     total magnetization       =     8.00 Bohr mag/cell
     absolute magnetization    =     8.68 Bohr mag/cell

     iteration #121     ecut=    48.00 Ry     beta= 0.50
     Davidson diagonalization with overlap
     c_bands:  1 eigenvalues not converged
     c_bands:  3 eigenvalues not converged
     c_bands:  1 eigenvalues not converged
     ethr =  1.12E-05,  avg # of iterations = 10.1

     negative rho (up, down):  5.154E-03 4.659E-03

     total cpu time spent up to now is      794.8 secs

     total energy              =    -495.68321991 Ry
     estimated scf accuracy    <       0.23335302 Ry

     total magnetization       =     8.00 Bohr mag/cell
     absolute magnetization    =     8.67 Bohr mag/cell

     iteration #122     ecut=    48.00 Ry     beta= 0.50
     Davidson diagonalization with overlap
     ethr =  1.12E-05,  avg # of iterations =  6.9

     negative rho (up, down):  5.452E-03 4.668E-03

     total cpu time spent up to now is      800.8 secs

     total energy              =    -495.68647081 Ry
     estimated scf accuracy    <       0.15599282 Ry

     total magnetization       =     8.00 Bohr mag/cell
     absolute magnetization    =     8.70 Bohr mag/cell

     iteration #123     ecut=    48.00 Ry     beta= 0.50
     Davidson diagonalization with overlap
     ethr =  1.12E-05,  avg # of iterations =  1.1

     negative rho (up, down):  5.899E-03 4.677E-03

     total cpu time spent up to now is      805.7 secs

     total energy              =    -495.68787909 Ry
     estimated scf accuracy    <       0.16385483 Ry

     total magnetization       =     8.00 Bohr mag/cell
     absolute magnetization    =     8.70 Bohr mag/cell

     iteration #124     ecut=    48.00 Ry     beta= 0.50
     Davidson diagonalization with overlap
     ethr =  1.12E-05,  avg # of iterations =  1.9

     negative rho (up, down):  5.357E-03 4.689E-03

     total cpu time spent up to now is      810.6 secs

     total energy              =    -495.67667152 Ry
     estimated scf accuracy    <       0.18141953 Ry

     total magnetization       =     8.00 Bohr mag/cell
     absolute magnetization    =     8.69 Bohr mag/cell

     iteration #125     ecut=    48.00 Ry     beta= 0.50
     Davidson diagonalization with overlap
     c_bands:  1 eigenvalues not converged
     ethr =  1.12E-05,  avg # of iterations = 10.4

     negative rho (up, down):  5.818E-03 4.677E-03

     total cpu time spent up to now is      817.6 secs

     total energy              =    -495.67999766 Ry
     estimated scf accuracy    <       0.07361879 Ry

     total magnetization       =     8.00 Bohr mag/cell
     absolute magnetization    =     8.76 Bohr mag/cell

     iteration #126     ecut=    48.00 Ry     beta= 0.50
     Davidson diagonalization with overlap
     ethr =  1.12E-05,  avg # of iterations =  1.1

     negative rho (up, down):  6.000E-03 4.678E-03

     total cpu time spent up to now is      822.4 secs

     total energy              =    -495.67959025 Ry
     estimated scf accuracy    <       0.07797498 Ry

     total magnetization       =     8.00 Bohr mag/cell
     absolute magnetization    =     8.76 Bohr mag/cell

     iteration #127     ecut=    48.00 Ry     beta= 0.50
     Davidson diagonalization with overlap
     ethr =  1.12E-05,  avg # of iterations =  1.0

     negative rho (up, down):  6.261E-03 4.681E-03

     total cpu time spent up to now is      827.2 secs

     total energy              =    -495.68082337 Ry
     estimated scf accuracy    <       0.07688392 Ry

     total magnetization       =     8.00 Bohr mag/cell
     absolute magnetization    =     8.76 Bohr mag/cell

     iteration #128     ecut=    48.00 Ry     beta= 0.50
     Davidson diagonalization with overlap
     ethr =  1.12E-05,  avg # of iterations =  2.3

     negative rho (up, down):  6.464E-03 4.991E-03

     total cpu time spent up to now is      832.2 secs

     total energy              =    -495.67314766 Ry
     estimated scf accuracy    <       0.10031552 Ry

     total magnetization       =     8.00 Bohr mag/cell
     absolute magnetization    =     8.72 Bohr mag/cell

     iteration #129     ecut=    48.00 Ry     beta= 0.50
     Davidson diagonalization with overlap
     c_bands:  1 eigenvalues not converged
     c_bands:  3 eigenvalues not converged
     c_bands:  2 eigenvalues not converged
     ethr =  1.12E-05,  avg # of iterations = 15.4

     negative rho (up, down):  6.232E-03 4.660E-03

     total cpu time spent up to now is      841.7 secs

     total energy              =    -495.66522738 Ry
     estimated scf accuracy    <       0.12381557 Ry

     total magnetization       =     8.00 Bohr mag/cell
     absolute magnetization    =     8.55 Bohr mag/cell

     iteration #130     ecut=    48.00 Ry     beta= 0.50
     Davidson diagonalization with overlap
     c_bands:  2 eigenvalues not converged
     c_bands:  2 eigenvalues not converged
     c_bands:  2 eigenvalues not converged
     c_bands:  2 eigenvalues not converged
     c_bands:  2 eigenvalues not converged
     c_bands:  3 eigenvalues not converged
     c_bands:  2 eigenvalues not converged
     c_bands:  1 eigenvalues not converged
     c_bands:  1 eigenvalues not converged
     c_bands:  2 eigenvalues not converged
     c_bands:  4 eigenvalues not converged
     c_bands:  2 eigenvalues not converged
     ethr =  1.12E-05,  avg # of iterations = 17.5

     negative rho (up, down):  7.782E-03 4.639E-03

     total cpu time spent up to now is      851.9 secs

     total energy              =    -495.68136845 Ry
     estimated scf accuracy    <       0.44620445 Ry

     total magnetization       =     8.00 Bohr mag/cell
     absolute magnetization    =     8.40 Bohr mag/cell

     iteration #131     ecut=    48.00 Ry     beta= 0.50
     Davidson diagonalization with overlap
     ethr =  1.12E-05,  avg # of iterations =  8.3

     negative rho (up, down):  1.006E-02 4.644E-03

     total cpu time spent up to now is      858.3 secs

     total energy              =    -495.68005992 Ry
     estimated scf accuracy    <       0.40033092 Ry

     total magnetization       =     8.00 Bohr mag/cell
     absolute magnetization    =     8.41 Bohr mag/cell

     iteration #132     ecut=    48.00 Ry     beta= 0.50
     Davidson diagonalization with overlap
     ethr =  1.12E-05,  avg # of iterations =  1.1

     negative rho (up, down):  1.337E-02 4.623E-03

     total cpu time spent up to now is      863.2 secs

     total energy              =    -495.68915018 Ry
     estimated scf accuracy    <       0.39214964 Ry

     total magnetization       =     8.00 Bohr mag/cell
     absolute magnetization    =     8.41 Bohr mag/cell

     iteration #133     ecut=    48.00 Ry     beta= 0.50
     Davidson diagonalization with overlap
     ethr =  1.12E-05,  avg # of iterations =  4.1

     negative rho (up, down):  1.322E-02 4.617E-03

     total cpu time spent up to now is      868.5 secs

     total energy              =    -495.68205979 Ry
     estimated scf accuracy    <       0.43005446 Ry

     total magnetization       =     8.00 Bohr mag/cell
     absolute magnetization    =     8.41 Bohr mag/cell

     iteration #134     ecut=    48.00 Ry     beta= 0.50
     Davidson diagonalization with overlap
     ethr =  1.12E-05,  avg # of iterations =  1.3

     negative rho (up, down):  1.585E-02 4.629E-03

[...]

     negative rho (up, down):  9.478E-03 4.635E-03

     total cpu time spent up to now is     3224.1 secs

     total energy              =    -495.67694878 Ry
     estimated scf accuracy    <       0.04223943 Ry

     total magnetization       =     8.00 Bohr mag/cell
     absolute magnetization    =     8.92 Bohr mag/cell

     iteration #476     ecut=    48.00 Ry     beta= 0.50
     Davidson diagonalization with overlap
     ethr =  3.92E-06,  avg # of iterations =  1.0

     negative rho (up, down):  9.037E-03 4.635E-03

     total cpu time spent up to now is     3228.9 secs

     total energy              =    -495.67733376 Ry
     estimated scf accuracy    <       0.04291617 Ry

     total magnetization       =     8.00 Bohr mag/cell
     absolute magnetization    =     8.92 Bohr mag/cell

     iteration #477     ecut=    48.00 Ry     beta= 0.50
     Davidson diagonalization with overlap
     ethr =  3.92E-06,  avg # of iterations =  2.6

     negative rho (up, down):  1.257E-02 4.794E-03

     total cpu time spent up to now is     3233.9 secs

     total energy              =    -495.68493463 Ry
     estimated scf accuracy    <       0.07827494 Ry

     total magnetization       =     8.00 Bohr mag/cell
     absolute magnetization    =     8.88 Bohr mag/cell

     iteration #478     ecut=    48.00 Ry     beta= 0.50
     Davidson diagonalization with overlap
     c_bands:  3 eigenvalues not converged
     c_bands:  3 eigenvalues not converged
     c_bands:  3 eigenvalues not converged
     c_bands:  2 eigenvalues not converged
     c_bands:  2 eigenvalues not converged
     c_bands:  3 eigenvalues not converged
     c_bands:  3 eigenvalues not converged
     c_bands:  1 eigenvalues not converged
     c_bands:  1 eigenvalues not converged
     c_bands:  2 eigenvalues not converged
     c_bands:  2 eigenvalues not converged
     c_bands:  1 eigenvalues not converged
     ethr =  3.92E-06,  avg # of iterations = 18.7

     negative rho (up, down):  1.454E-02 4.740E-03

     total cpu time spent up to now is     3244.2 secs

     total energy              =    -495.69794197 Ry
     estimated scf accuracy    <       0.87176169 Ry

     total magnetization       =     8.00 Bohr mag/cell
     absolute magnetization    =     8.30 Bohr mag/cell

     iteration #479     ecut=    48.00 Ry     beta= 0.50
     Davidson diagonalization with overlap
     ethr =  3.92E-06,  avg # of iterations =  6.4

     negative rho (up, down):  1.605E-02 4.715E-03

     total cpu time spent up to now is     3250.2 secs

     total energy              =    -495.70772318 Ry
     estimated scf accuracy    <       0.80430645 Ry

     total magnetization       =     8.00 Bohr mag/cell
     absolute magnetization    =     8.32 Bohr mag/cell

     iteration #480     ecut=    48.00 Ry     beta= 0.50
     Davidson diagonalization with overlap
     ethr =  3.92E-06,  avg # of iterations =  5.6

     negative rho (up, down):  1.809E-02 4.788E-03

     total cpu time spent up to now is     3256.1 secs

     total energy              =    -495.70680002 Ry
     estimated scf accuracy    <       0.88682462 Ry

     total magnetization       =     8.00 Bohr mag/cell
     absolute magnetization    =     8.29 Bohr mag/cell

     iteration #481     ecut=    48.00 Ry     beta= 0.50
     Davidson diagonalization with overlap
     ethr =  3.92E-06,  avg # of iterations =  6.8

     negative rho (up, down):  1.961E-02 4.783E-03

     total cpu time spent up to now is     3262.3 secs

     total energy              =    -495.71517842 Ry
     estimated scf accuracy    <       0.95495411 Ry

     total magnetization       =     8.00 Bohr mag/cell
     absolute magnetization    =     8.26 Bohr mag/cell

     iteration #482     ecut=    48.00 Ry     beta= 0.50
     Davidson diagonalization with overlap
     ethr =  3.92E-06,  avg # of iterations =  6.7

     negative rho (up, down):  1.809E-02 4.723E-03

     total cpu time spent up to now is     3268.8 secs

     total energy              =    -495.68688903 Ry
     estimated scf accuracy    <       1.05038380 Ry

     total magnetization       =     8.00 Bohr mag/cell
     absolute magnetization    =     8.25 Bohr mag/cell

     iteration #483     ecut=    48.00 Ry     beta= 0.50
     Davidson diagonalization with overlap
     c_bands:  1 eigenvalues not converged
     c_bands:  1 eigenvalues not converged
     c_bands:  3 eigenvalues not converged
     ethr =  3.92E-06,  avg # of iterations = 13.9

     negative rho (up, down):  1.619E-02 5.470E-03

     total cpu time spent up to now is     3277.5 secs

     total energy              =    -495.64340813 Ry
     estimated scf accuracy    <       0.76642653 Ry

     total magnetization       =     8.00 Bohr mag/cell
     absolute magnetization    =     8.29 Bohr mag/cell

     iteration #484     ecut=    48.00 Ry     beta= 0.50
     Davidson diagonalization with overlap
     c_bands:  2 eigenvalues not converged
     c_bands:  2 eigenvalues not converged
     c_bands:  4 eigenvalues not converged
     c_bands:  5 eigenvalues not converged
     c_bands:  2 eigenvalues not converged
     c_bands:  2 eigenvalues not converged
     c_bands:  1 eigenvalues not converged
     c_bands:  4 eigenvalues not converged
     c_bands:  5 eigenvalues not converged
     c_bands:  4 eigenvalues not converged
     c_bands:  3 eigenvalues not converged
     c_bands:  2 eigenvalues not converged
     c_bands:  5 eigenvalues not converged
     ethr =  3.92E-06,  avg # of iterations = 23.5

     negative rho (up, down):  1.279E-02 5.245E-03

     total cpu time spent up to now is     3291.3 secs

     total energy              =    -495.67714542 Ry
     estimated scf accuracy    <       0.15739392 Ry

     total magnetization       =     8.00 Bohr mag/cell
     absolute magnetization    =     8.43 Bohr mag/cell

     iteration #485     ecut=    48.00 Ry     beta= 0.50
     Davidson diagonalization with overlap
     c_bands:  3 eigenvalues not converged
     c_bands:  2 eigenvalues not converged
     c_bands:  5 eigenvalues not converged
     ethr =  3.92E-06,  avg # of iterations = 12.6

     negative rho (up, down):  1.201E-02 4.797E-03

     total cpu time spent up to now is     3299.7 secs

     total energy              =    -495.68437158 Ry
     estimated scf accuracy    <       0.28416889 Ry

     total magnetization       =     8.00 Bohr mag/cell
     absolute magnetization    =     8.45 Bohr mag/cell

     iteration #486     ecut=    48.00 Ry     beta= 0.50
     Davidson diagonalization with overlap
     ethr =  3.92E-06,  avg # of iterations =  2.1

     negative rho (up, down):  1.628E-02 5.627E-03

     total cpu time spent up to now is     3304.7 secs

     total energy              =    -495.69781021 Ry
     estimated scf accuracy    <       0.28263939 Ry

     total magnetization       =     8.00 Bohr mag/cell
     absolute magnetization    =     8.45 Bohr mag/cell

     iteration #487     ecut=    48.00 Ry     beta= 0.50
     Davidson diagonalization with overlap
     c_bands:  2 eigenvalues not converged
     c_bands:  2 eigenvalues not converged
     c_bands:  2 eigenvalues not converged
     c_bands:  3 eigenvalues not converged
     c_bands:  2 eigenvalues not converged
     c_bands:  2 eigenvalues not converged
     c_bands:  3 eigenvalues not converged
     c_bands:  2 eigenvalues not converged
     c_bands:  2 eigenvalues not converged
     c_bands:  1 eigenvalues not converged
     ethr =  3.92E-06,  avg # of iterations = 17.9

     negative rho (up, down):  1.334E-02 5.083E-03

     total cpu time spent up to now is     3315.2 secs

     total energy              =    -495.74022394 Ry
     estimated scf accuracy    <       1.55755494 Ry

     total magnetization       =     8.00 Bohr mag/cell
     absolute magnetization    =     8.22 Bohr mag/cell

     iteration #488     ecut=    48.00 Ry     beta= 0.50
     Davidson diagonalization with overlap
     ethr =  3.92E-06,  avg # of iterations =  6.6

     negative rho (up, down):  1.794E-02 5.833E-03

     total cpu time spent up to now is     3321.1 secs

     total energy              =    -495.79339663 Ry
     estimated scf accuracy    <       1.49488178 Ry

     total magnetization       =     8.00 Bohr mag/cell
     absolute magnetization    =     8.28 Bohr mag/cell

     iteration #489     ecut=    48.00 Ry     beta= 0.50
     Davidson diagonalization with overlap
     c_bands:  1 eigenvalues not converged
     c_bands:  2 eigenvalues not converged
     c_bands:  1 eigenvalues not converged
     c_bands:  2 eigenvalues not converged
     c_bands:  1 eigenvalues not converged
     c_bands:  1 eigenvalues not converged
     ethr =  3.92E-06,  avg # of iterations = 13.4

     negative rho (up, down):  2.734E-02 5.216E-03

     total cpu time spent up to now is     3329.5 secs

     total energy              =    -495.72878035 Ry
     estimated scf accuracy    <       1.99706302 Ry

     total magnetization       =     8.00 Bohr mag/cell
     absolute magnetization    =     8.13 Bohr mag/cell

     iteration #490     ecut=    48.00 Ry     beta= 0.50
     Davidson diagonalization with overlap
     c_bands:  3 eigenvalues not converged
     c_bands:  2 eigenvalues not converged
     c_bands:  2 eigenvalues not converged
     c_bands:  2 eigenvalues not converged
     c_bands:  1 eigenvalues not converged
     c_bands:  2 eigenvalues not converged
     c_bands:  2 eigenvalues not converged
     c_bands:  2 eigenvalues not converged
     c_bands:  1 eigenvalues not converged
     c_bands:  1 eigenvalues not converged
     c_bands:  1 eigenvalues not converged
     c_bands:  1 eigenvalues not converged
     ethr =  3.92E-06,  avg # of iterations = 16.4

     negative rho (up, down):  2.115E-02 5.985E-03

     total cpu time spent up to now is     3339.6 secs

     total energy              =    -495.54315950 Ry
     estimated scf accuracy    <       1.72099307 Ry

     total magnetization       =     8.00 Bohr mag/cell
     absolute magnetization    =     8.10 Bohr mag/cell

     iteration #491     ecut=    48.00 Ry     beta= 0.50
     Davidson diagonalization with overlap
     c_bands:  1 eigenvalues not converged
     c_bands:  5 eigenvalues not converged
     c_bands:  1 eigenvalues not converged
     c_bands:  4 eigenvalues not converged
     c_bands:  5 eigenvalues not converged
     c_bands:  3 eigenvalues not converged
     c_bands:  2 eigenvalues not converged
     c_bands:  3 eigenvalues not converged
     c_bands:  3 eigenvalues not converged
     c_bands:  4 eigenvalues not converged
     c_bands:  3 eigenvalues not converged
     c_bands:  4 eigenvalues not converged
     ethr =  3.92E-06,  avg # of iterations = 18.7

     negative rho (up, down):  2.187E-02 4.959E-03

     total cpu time spent up to now is     3351.8 secs

     total energy              =    -495.63673159 Ry
     estimated scf accuracy    <       0.15343133 Ry

     total magnetization       =     8.00 Bohr mag/cell
     absolute magnetization    =     8.67 Bohr mag/cell

     iteration #492     ecut=    48.00 Ry     beta= 0.50
     Davidson diagonalization with overlap
     c_bands:  1 eigenvalues not converged
     c_bands:  1 eigenvalues not converged
     c_bands:  1 eigenvalues not converged
     c_bands:  1 eigenvalues not converged
     c_bands:  3 eigenvalues not converged
     c_bands:  3 eigenvalues not converged
     c_bands:  2 eigenvalues not converged
     c_bands:  1 eigenvalues not converged
     c_bands:  1 eigenvalues not converged
     c_bands:  4 eigenvalues not converged
     ethr =  3.92E-06,  avg # of iterations = 19.2

     negative rho (up, down):  1.571E-02 4.674E-03

     total cpu time spent up to now is     3362.9 secs

     total energy              =    -495.66442813 Ry
     estimated scf accuracy    <       0.10509572 Ry

     total magnetization       =     8.00 Bohr mag/cell
     absolute magnetization    =     8.60 Bohr mag/cell

     iteration #493     ecut=    48.00 Ry     beta= 0.50
     Davidson diagonalization with overlap
     c_bands:  1 eigenvalues not converged
     c_bands:  1 eigenvalues not converged
     ethr =  3.92E-06,  avg # of iterations = 12.4

     negative rho (up, down):  1.166E-02 4.643E-03

     total cpu time spent up to now is     3370.9 secs

     total energy              =    -495.66827216 Ry
     estimated scf accuracy    <       0.04001244 Ry

     total magnetization       =     8.00 Bohr mag/cell
     absolute magnetization    =     8.69 Bohr mag/cell

     iteration #494     ecut=    48.00 Ry     beta= 0.50
     Davidson diagonalization with overlap
     c_bands:  1 eigenvalues not converged
     c_bands:  1 eigenvalues not converged
     c_bands:  1 eigenvalues not converged
     c_bands:  1 eigenvalues not converged
     c_bands:  1 eigenvalues not converged
     c_bands:  2 eigenvalues not converged
     c_bands:  1 eigenvalues not converged
     ethr =  3.92E-06,  avg # of iterations = 14.5

     negative rho (up, down):  9.075E-03 4.647E-03

     total cpu time spent up to now is     3379.2 secs

     total energy              =    -495.66080950 Ry
     estimated scf accuracy    <       0.10330857 Ry

     total magnetization       =     8.00 Bohr mag/cell
     absolute magnetization    =     8.67 Bohr mag/cell

     iteration #495     ecut=    48.00 Ry     beta= 0.50
     Davidson diagonalization with overlap
     c_bands:  1 eigenvalues not converged
     c_bands:  3 eigenvalues not converged
     c_bands:  2 eigenvalues not converged
     c_bands:  1 eigenvalues not converged
     c_bands:  1 eigenvalues not converged
     c_bands:  2 eigenvalues not converged
     c_bands:  5 eigenvalues not converged
     ethr =  3.92E-06,  avg # of iterations = 15.9

     negative rho (up, down):  1.114E-02 4.654E-03

     total cpu time spent up to now is     3388.7 secs

     total energy              =    -495.67438333 Ry
     estimated scf accuracy    <       0.10478309 Ry

     total magnetization       =     8.00 Bohr mag/cell
     absolute magnetization    =     8.60 Bohr mag/cell

     iteration #496     ecut=    48.00 Ry     beta= 0.50
     Davidson diagonalization with overlap
     c_bands:  3 eigenvalues not converged
     c_bands:  2 eigenvalues not converged
     c_bands:  2 eigenvalues not converged
     c_bands:  1 eigenvalues not converged
     c_bands:  2 eigenvalues not converged
     c_bands:  1 eigenvalues not converged
     c_bands:  1 eigenvalues not converged
     c_bands:  4 eigenvalues not converged
     c_bands:  1 eigenvalues not converged
     c_bands:  1 eigenvalues not converged
     ethr =  3.92E-06,  avg # of iterations = 18.4

     negative rho (up, down):  1.258E-02 4.639E-03

     total cpu time spent up to now is     3398.5 secs

     total energy              =    -495.67922770 Ry
     estimated scf accuracy    <       0.48113311 Ry

     total magnetization       =     8.00 Bohr mag/cell
     absolute magnetization    =     8.33 Bohr mag/cell

     iteration #497     ecut=    48.00 Ry     beta= 0.50
     Davidson diagonalization with overlap
     ethr =  3.92E-06,  avg # of iterations =  9.6

     negative rho (up, down):  1.246E-02 4.649E-03

     total cpu time spent up to now is     3405.7 secs

     total energy              =    -495.67041476 Ry
     estimated scf accuracy    <       0.37930240 Ry

     total magnetization       =     8.00 Bohr mag/cell
     absolute magnetization    =     8.39 Bohr mag/cell

     iteration #498     ecut=    48.00 Ry     beta= 0.50
     Davidson diagonalization with overlap
     ethr =  3.92E-06,  avg # of iterations = 10.4

     negative rho (up, down):  1.157E-02 4.664E-03

     total cpu time spent up to now is     3413.2 secs

     total energy              =    -495.66173513 Ry
     estimated scf accuracy    <       0.29733283 Ry

     total magnetization       =     8.00 Bohr mag/cell
     absolute magnetization    =     8.39 Bohr mag/cell

     iteration #499     ecut=    48.00 Ry     beta= 0.50
     Davidson diagonalization with overlap
     c_bands:  2 eigenvalues not converged
     c_bands:  2 eigenvalues not converged
     ethr =  3.92E-06,  avg # of iterations = 13.1

     negative rho (up, down):  8.605E-03 4.676E-03

     total cpu time spent up to now is     3421.8 secs

     total energy              =    -495.66204519 Ry
     estimated scf accuracy    <       0.03081319 Ry

     total magnetization       =     8.00 Bohr mag/cell
     absolute magnetization    =     8.46 Bohr mag/cell

     iteration #500     ecut=    48.00 Ry     beta= 0.50
     Davidson diagonalization with overlap
     c_bands:  1 eigenvalues not converged
     c_bands:  1 eigenvalues not converged
     c_bands:  1 eigenvalues not converged
     c_bands:  1 eigenvalues not converged
     c_bands:  5 eigenvalues not converged
     c_bands:  3 eigenvalues not converged
     c_bands:  2 eigenvalues not converged
     c_bands:  4 eigenvalues not converged
     c_bands:  3 eigenvalues not converged
     c_bands:  2 eigenvalues not converged
     ethr =  3.92E-06,  avg # of iterations = 17.1

     negative rho (up, down):  6.172E-03 4.671E-03

     total cpu time spent up to now is     3431.9 secs

     total energy              =    -495.66800749 Ry
     estimated scf accuracy    <       0.00934317 Ry

     total magnetization       =     8.00 Bohr mag/cell
     absolute magnetization    =     8.75 Bohr mag/cell

     End of self-consistent calculation

     convergence NOT achieved after 500 iterations: stopping

     Writing output data file ./mytmp/2Cr0.24.save/
 
     init_run     :      4.06s CPU      4.44s WALL (       1 calls)
     electrons    :   3028.96s CPU   3427.40s WALL (       1 calls)

     Called by init_run:
     wfcinit      :      0.84s CPU      0.89s WALL (       1 calls)
     potinit      :      0.82s CPU      0.89s WALL (       1 calls)
     hinit0       :      0.78s CPU      0.80s WALL (       1 calls)

     Called by electrons:
     c_bands      :   1729.82s CPU   1866.72s WALL (     500 calls)
     sum_band     :    780.85s CPU    919.85s WALL (     500 calls)
     v_of_rho     :    152.43s CPU    170.86s WALL (     501 calls)
     newd         :    243.50s CPU    342.66s WALL (     501 calls)
     PAW_pot      :     64.98s CPU     68.59s WALL (     501 calls)
     mix_rho      :     38.63s CPU     39.31s WALL (     500 calls)

     Called by c_bands:
     init_us_2    :     15.21s CPU     15.85s WALL (   18018 calls)
     cegterg      :   1674.41s CPU   1809.21s WALL (    9034 calls)

     Called by *egterg:
     cdiaghg      :    214.74s CPU    282.12s WALL (   83199 calls)
     h_psi        :   1138.73s CPU   1183.04s WALL (   83217 calls)
     s_psi        :     27.02s CPU     27.71s WALL (   83217 calls)
     g_psi        :      4.10s CPU      4.42s WALL (   74165 calls)

     Called by h_psi:
     h_psi:calbec :     51.68s CPU     53.37s WALL (   83217 calls)
     vloc_psi     :   1040.13s CPU   1081.25s WALL (   83217 calls)
     add_vuspsi   :     40.18s CPU     41.44s WALL (   83217 calls)

     General routines
     calbec       :     60.04s CPU     62.06s WALL (   92217 calls)
     fft          :    130.25s CPU    141.36s WALL (   12523 calls)
     ffts         :      3.72s CPU      3.81s WALL (    2002 calls)
     fftw         :   1017.06s CPU   1056.00s WALL ( 1297610 calls)
     interpolate  :     13.70s CPU     14.06s WALL (    1002 calls)
     davcio       :      0.00s CPU      0.06s WALL (      36 calls)
 
     Parallel routines
     fft_scatt_xy :    178.00s CPU    183.81s WALL ( 1312135 calls)
     fft_scatt_yz :    440.66s CPU    467.51s WALL ( 1312135 calls)
 
     PWSCF        :  50m33.31s CPU  57m12.29s WALL

 
   This run was terminated on:  21:48:52  30Mar2021            

=------------------------------------------------------------------------------=
   JOB DONE.
=------------------------------------------------------------------------------=
