
     Program PWSCF v.6.7MaX starts on 30Mar2021 at 22: 0:45 

     This program is part of the open-source Quantum ESPRESSO suite
     for quantum simulation of materials; please cite
         "P. Giannozzi et al., J. Phys.:Condens. Matter 21 395502 (2009);
         "P. Giannozzi et al., J. Phys.:Condens. Matter 29 465901 (2017);
          URL http://www.quantum-espresso.org", 
     in publications or presentations arising from this work. More details at
     http://www.quantum-espresso.org/quote

     Parallel version (MPI), running on    48 processors

     MPI processes distributed on     1 nodes
     R & G space division:  proc/nbgrp/npool/nimage =      48
     Reading input from 2Cr0.28.scf.in

     Current dimensions of program PWSCF are:
     Max number of different atomic species (ntypx) = 10
     Max number of k-points (npk) =  40000
     Max angular momentum in pseudopotentials (lmaxx) =  3
     file Cr.pbe-spn-kjpaw_psl.1.0.0.UPF: wavefunction(s)  3S 3P 3D renormalized
     file Cr.pbe-spn-kjpaw_psl.1.0.0.UPF: wavefunction(s)  3S 3P 3D renormalized

     --------------------------------------------
     Parameters for DFT-D3 Dispersion Correction:
     --------------------------------------------
       Reference C6 values for interpolation: 

         atom   Coordination number   C6
         Cr1        0.000          1381.48
         Cr1        1.827           571.38
         Cr1       10.619           306.69
         Cr2        0.000          1381.48
         Cr2        1.827           571.38
         Cr2       10.619           306.69

       Values used:

         atom   Coordination number  R0_AB[au]  C6      C8
         Cr1        0.005            3.252   1381.48 127495.27
         Cr2        0.005            3.252   1381.48 127495.27

         Molecular C6 ( Ry / a.u.^6 ) =      5525.93


     Subspace diagonalization in iterative solution of the eigenvalue problem:
     one sub-group per band group will be used
     scalapack distributed-memory algorithm (size of sub-group:  6*  6 procs)

 
     Parallelization info
     --------------------
     sticks:   dense  smooth     PW     G-vecs:    dense   smooth      PW
     Min         235      98     26                36277     9874    1408
     Max         236      99     27                36282     9883    1425
     Sum       11311    4741   1285              1741401   474235   68095
 


     bravais-lattice index     =            4
     lattice parameter (alat)  =      18.9275  a.u.
     unit-cell volume          =   10553.3021 (a.u.)^3
     number of atoms/cell      =            2
     number of atomic types    =            2
     number of electrons       =        28.00
     number of Kohn-Sham states=           18
     kinetic-energy cutoff     =      48.0000  Ry
     charge density cutoff     =     457.0000  Ry
     scf convergence threshold =      1.0E-07
     mixing beta               =       0.5000
     number of iterations used =            8  plain     mixing
     Exchange-correlation= SLA  PW   PBX  PBC
                           (   1   4   3   4   0   0   0)

     celldm(1)=  18.927497  celldm(2)=   0.000000  celldm(3)=   1.797125
     celldm(4)=   0.000000  celldm(5)=   0.000000  celldm(6)=   0.000000

     crystal axes: (cart. coord. in units of alat)
               a(1) = (   1.000000   0.000000   0.000000 )  
               a(2) = (  -0.500000   0.866025   0.000000 )  
               a(3) = (   0.000000   0.000000   1.797125 )  

     reciprocal axes: (cart. coord. in units 2 pi/alat)
               b(1) = (  1.000000  0.577350  0.000000 )  
               b(2) = (  0.000000  1.154701  0.000000 )  
               b(3) = (  0.000000  0.000000  0.556444 )  


     PseudoPot. # 1 for Cr read from file:
     /home/sf05/q-e-qe-6.7MaX-Release/pseudo/Cr.pbe-spn-kjpaw_psl.1.0.0.UPF
     MD5 check sum: 198f1a2427a48552563eee314eba32ba
     Pseudo is Projector augmented-wave + core cor, Zval = 14.0
     Generated using &quot;atomic&quot; code by A. Dal Corso  v.6.3
     Shape of augmentation charge: PSQ
     Using radial grid of 1183 points,  6 beta functions with: 
                l(1) =   0
                l(2) =   0
                l(3) =   1
                l(4) =   1
                l(5) =   2
                l(6) =   2
     Q(r) pseudized with 0 coefficients 


     PseudoPot. # 2 for Cr read from file:
     /home/sf05/q-e-qe-6.7MaX-Release/pseudo/Cr.pbe-spn-kjpaw_psl.1.0.0.UPF
     MD5 check sum: 198f1a2427a48552563eee314eba32ba
     Pseudo is Projector augmented-wave + core cor, Zval = 14.0
     Generated using &quot;atomic&quot; code by A. Dal Corso  v.6.3
     Shape of augmentation charge: PSQ
     Using radial grid of 1183 points,  6 beta functions with: 
                l(1) =   0
                l(2) =   0
                l(3) =   1
                l(4) =   1
                l(5) =   2
                l(6) =   2
     Q(r) pseudized with 0 coefficients 


     atomic species   valence    mass     pseudopotential
        Cr1           14.00    51.99610     Cr( 1.00)
        Cr2           14.00    51.99610     Cr( 1.00)

     Starting magnetic structure 
     atomic species   magnetization
        Cr1          1.000
        Cr2          1.000

      4 Sym. Ops. (no inversion) found ( 2 have fractional translation)



   Cartesian axes

     site n.     atom                  positions (alat units)
         1           Cr1 tau(   1) = (   0.5300000   0.4330127   0.8985623  )
         2           Cr2 tau(   2) = (  -0.0300000   0.4330127   0.8985623  )

     number of k points=     9  Gaussian smearing, width (Ry)=  0.0000
                       cart. coord. in units 2pi/alat
        k(    1) = (   0.1666667   0.2886751   0.0000000), wk =   0.1481481
        k(    2) = (   0.1666667  -0.4811252   0.0000000), wk =   0.1481481
        k(    3) = (   0.1666667  -0.0962250   0.0000000), wk =   0.1481481
        k(    4) = (  -0.5000000  -0.8660254   0.0000000), wk =   0.0740741
        k(    5) = (   0.3333333   0.0000000   0.0000000), wk =   0.0740741
        k(    6) = (   0.5000000  -0.0962250   0.0000000), wk =   0.1481481
        k(    7) = (  -0.3333333  -0.3849002   0.0000000), wk =   0.1481481
        k(    8) = (  -0.0000000  -0.1924501   0.0000000), wk =   0.0740741
        k(    9) = (  -1.0000000   0.0000000   0.0000000), wk =   0.0370370

     Dense  grid:  1741401 G-vectors     FFT dimensions: ( 144, 135, 240)

     Smooth grid:   474235 G-vectors     FFT dimensions: (  90,  90, 160)

     Estimated max dynamical RAM per process >     152.07 MB

     Estimated total dynamical RAM >       7.13 GB
     Generating pointlists ...
     new r_m :   0.1815 (alat units)  3.4353 (a.u.) for type    1
     new r_m :   0.1815 (alat units)  3.4353 (a.u.) for type    2

     Initial potential from superposition of free atoms

     starting charge   27.99845, renormalised to   28.00000

     negative rho (up, down):  1.056E-02 3.598E-17
     Starting wfcs are   20 randomized atomic wfcs
     Checking if some PAW data can be deallocated... 

     total cpu time spent up to now is        4.8 secs

     Self-consistent Calculation

     iteration #  1     ecut=    48.00 Ry     beta= 0.50
     Davidson diagonalization with overlap
     ethr =  1.00E-02,  avg # of iterations =  7.8

     negative rho (up, down):  7.784E-03 1.092E-05

     total cpu time spent up to now is       12.6 secs

     total energy              =    -494.16149227 Ry
     estimated scf accuracy    <       4.71393681 Ry

     total magnetization       =     8.00 Bohr mag/cell
     absolute magnetization    =    10.72 Bohr mag/cell

     iteration #  2     ecut=    48.00 Ry     beta= 0.50
     Davidson diagonalization with overlap
     ethr =  1.00E-02,  avg # of iterations =  2.0

     negative rho (up, down):  1.436E-02 3.693E-03

     total cpu time spent up to now is       17.9 secs

     total energy              =    -495.45017121 Ry
     estimated scf accuracy    <       1.28955199 Ry

     total magnetization       =     8.00 Bohr mag/cell
     absolute magnetization    =     9.77 Bohr mag/cell

     iteration #  3     ecut=    48.00 Ry     beta= 0.50
     Davidson diagonalization with overlap
     ethr =  4.61E-03,  avg # of iterations =  1.0

     negative rho (up, down):  3.807E-02 2.063E-02

     total cpu time spent up to now is       22.6 secs

     total energy              =    -495.63019920 Ry
     estimated scf accuracy    <       0.21813699 Ry

     total magnetization       =     8.00 Bohr mag/cell
     absolute magnetization    =     9.45 Bohr mag/cell

     iteration #  4     ecut=    48.00 Ry     beta= 0.50
     Davidson diagonalization with overlap
     ethr =  7.79E-04,  avg # of iterations =  4.5

     negative rho (up, down):  1.870E-02 1.013E-02

     total cpu time spent up to now is       28.5 secs

     total energy              =    -495.64629128 Ry
     estimated scf accuracy    <       0.00943221 Ry

     total magnetization       =     8.00 Bohr mag/cell
     absolute magnetization    =     9.40 Bohr mag/cell

     iteration #  5     ecut=    48.00 Ry     beta= 0.50
     Davidson diagonalization with overlap
     c_bands:  1 eigenvalues not converged
     c_bands:  1 eigenvalues not converged
     c_bands:  3 eigenvalues not converged
     c_bands:  1 eigenvalues not converged
     c_bands:  1 eigenvalues not converged
     c_bands:  2 eigenvalues not converged
     ethr =  3.37E-05,  avg # of iterations = 17.9

     negative rho (up, down):  1.329E-02 4.694E-03

     total cpu time spent up to now is       39.0 secs

     total energy              =    -495.73202692 Ry
     estimated scf accuracy    <       0.55570325 Ry

     total magnetization       =     8.00 Bohr mag/cell
     absolute magnetization    =     8.17 Bohr mag/cell

     iteration #  6     ecut=    48.00 Ry     beta= 0.50
     Davidson diagonalization with overlap
     c_bands:  2 eigenvalues not converged
     ethr =  3.37E-05,  avg # of iterations =  4.3

     negative rho (up, down):  1.700E-02 3.779E-03

     total cpu time spent up to now is       44.6 secs

     total energy              =    -495.78699312 Ry
     estimated scf accuracy    <       0.53262093 Ry

     total magnetization       =     8.00 Bohr mag/cell
     absolute magnetization    =     8.15 Bohr mag/cell

     iteration #  7     ecut=    48.00 Ry     beta= 0.50
     Davidson diagonalization with overlap
     ethr =  3.37E-05,  avg # of iterations =  7.6

     negative rho (up, down):  1.573E-02 4.325E-03

     total cpu time spent up to now is       51.3 secs

     total energy              =    -495.78873692 Ry
     estimated scf accuracy    <       0.82077761 Ry

     total magnetization       =     8.00 Bohr mag/cell
     absolute magnetization    =     8.10 Bohr mag/cell

     iteration #  8     ecut=    48.00 Ry     beta= 0.50
     Davidson diagonalization with overlap
     ethr =  3.37E-05,  avg # of iterations =  1.0

     negative rho (up, down):  9.031E-03 4.551E-03

     total cpu time spent up to now is       56.1 secs

     total energy              =    -495.71447257 Ry
     estimated scf accuracy    <       0.81253254 Ry

     total magnetization       =     8.00 Bohr mag/cell
     absolute magnetization    =     8.10 Bohr mag/cell

     iteration #  9     ecut=    48.00 Ry     beta= 0.50
     Davidson diagonalization with overlap
     c_bands:  1 eigenvalues not converged
     ethr =  3.37E-05,  avg # of iterations = 12.2

     negative rho (up, down):  9.527E-03 4.751E-03

     total cpu time spent up to now is       63.9 secs

     total energy              =    -495.71521540 Ry
     estimated scf accuracy    <       0.43487214 Ry

     total magnetization       =     8.00 Bohr mag/cell
     absolute magnetization    =     8.20 Bohr mag/cell

     iteration # 10     ecut=    48.00 Ry     beta= 0.50
     Davidson diagonalization with overlap
     ethr =  3.37E-05,  avg # of iterations =  2.1

     negative rho (up, down):  5.086E-03 4.715E-03

     total cpu time spent up to now is       68.9 secs

     total energy              =    -495.61430293 Ry
     estimated scf accuracy    <       0.40704068 Ry

     total magnetization       =     8.00 Bohr mag/cell
     absolute magnetization    =     8.20 Bohr mag/cell

     iteration # 11     ecut=    48.00 Ry     beta= 0.50
     Davidson diagonalization with overlap
     c_bands:  1 eigenvalues not converged
     c_bands:  4 eigenvalues not converged
     c_bands:  4 eigenvalues not converged
     c_bands:  5 eigenvalues not converged
     c_bands:  5 eigenvalues not converged
     c_bands:  2 eigenvalues not converged
     c_bands:  1 eigenvalues not converged
     c_bands:  4 eigenvalues not converged
     c_bands:  2 eigenvalues not converged
     ethr =  3.37E-05,  avg # of iterations = 16.9

     negative rho (up, down):  8.254E-03 5.111E-03

     total cpu time spent up to now is       79.9 secs

     total energy              =    -495.68611144 Ry
     estimated scf accuracy    <       0.07580039 Ry

     total magnetization       =     8.00 Bohr mag/cell
     absolute magnetization    =     8.76 Bohr mag/cell

     iteration # 12     ecut=    48.00 Ry     beta= 0.50
     Davidson diagonalization with overlap
     ethr =  3.37E-05,  avg # of iterations =  8.6

     negative rho (up, down):  9.057E-03 5.284E-03

     total cpu time spent up to now is       86.7 secs

     total energy              =    -495.69628464 Ry
     estimated scf accuracy    <       0.10755198 Ry

     total magnetization       =     8.00 Bohr mag/cell
     absolute magnetization    =     9.05 Bohr mag/cell

     iteration # 13     ecut=    48.00 Ry     beta= 0.50
     Davidson diagonalization with overlap
     ethr =  3.37E-05,  avg # of iterations =  1.0

     negative rho (up, down):  6.793E-03 4.622E-03

     total cpu time spent up to now is       91.5 secs

     total energy              =    -495.65879578 Ry
     estimated scf accuracy    <       0.10099450 Ry

     total magnetization       =     8.00 Bohr mag/cell
     absolute magnetization    =     9.05 Bohr mag/cell

     iteration # 14     ecut=    48.00 Ry     beta= 0.50
     Davidson diagonalization with overlap
     c_bands:  3 eigenvalues not converged
     c_bands:  4 eigenvalues not converged
     c_bands:  4 eigenvalues not converged
     c_bands:  4 eigenvalues not converged
     ethr =  3.37E-05,  avg # of iterations = 14.7

     negative rho (up, down):  6.662E-03 4.681E-03

     total cpu time spent up to now is      101.4 secs

     total energy              =    -495.68774514 Ry
     estimated scf accuracy    <       0.35241090 Ry

     total magnetization       =     8.00 Bohr mag/cell
     absolute magnetization    =     8.55 Bohr mag/cell

     iteration # 15     ecut=    48.00 Ry     beta= 0.50
     Davidson diagonalization with overlap
     ethr =  3.37E-05,  avg # of iterations =  6.0

     negative rho (up, down):  9.048E-03 4.678E-03

     total cpu time spent up to now is      107.4 secs

     total energy              =    -495.69081234 Ry
     estimated scf accuracy    <       0.38396612 Ry

     total magnetization       =     8.00 Bohr mag/cell
     absolute magnetization    =     8.57 Bohr mag/cell

     iteration # 16     ecut=    48.00 Ry     beta= 0.50
     Davidson diagonalization with overlap
     ethr =  3.37E-05,  avg # of iterations =  1.0

     negative rho (up, down):  9.807E-03 4.696E-03

     total cpu time spent up to now is      112.2 secs

     total energy              =    -495.68889885 Ry
     estimated scf accuracy    <       0.38510210 Ry

     total magnetization       =     8.00 Bohr mag/cell
     absolute magnetization    =     8.57 Bohr mag/cell

     iteration # 17     ecut=    48.00 Ry     beta= 0.50
     Davidson diagonalization with overlap
     ethr =  3.37E-05,  avg # of iterations =  1.0

     negative rho (up, down):  1.078E-02 4.689E-03

     total cpu time spent up to now is      117.0 secs

     total energy              =    -495.70199525 Ry
     estimated scf accuracy    <       0.38000608 Ry

     total magnetization       =     8.00 Bohr mag/cell
     absolute magnetization    =     8.58 Bohr mag/cell

     iteration # 18     ecut=    48.00 Ry     beta= 0.50
     Davidson diagonalization with overlap
     ethr =  3.37E-05,  avg # of iterations =  9.7

     negative rho (up, down):  1.136E-02 4.713E-03

     total cpu time spent up to now is      123.7 secs

     total energy              =    -495.69579424 Ry
     estimated scf accuracy    <       0.45443033 Ry

     total magnetization       =     8.00 Bohr mag/cell
     absolute magnetization    =     8.53 Bohr mag/cell

     iteration # 19     ecut=    48.00 Ry     beta= 0.50
     Davidson diagonalization with overlap
     ethr =  3.37E-05,  avg # of iterations =  1.3

     negative rho (up, down):  1.367E-02 4.645E-03

     total cpu time spent up to now is      128.6 secs

     total energy              =    -495.72855872 Ry
     estimated scf accuracy    <       0.43505751 Ry

     total magnetization       =     8.00 Bohr mag/cell
     absolute magnetization    =     8.54 Bohr mag/cell

     iteration # 20     ecut=    48.00 Ry     beta= 0.50
     Davidson diagonalization with overlap
     c_bands:  1 eigenvalues not converged
     c_bands:  2 eigenvalues not converged
     c_bands:  1 eigenvalues not converged
     c_bands:  1 eigenvalues not converged
     c_bands:  1 eigenvalues not converged
     c_bands:  1 eigenvalues not converged
     c_bands:  1 eigenvalues not converged
     c_bands:  1 eigenvalues not converged
     ethr =  3.37E-05,  avg # of iterations = 16.9

     negative rho (up, down):  1.063E-02 4.926E-03

     total cpu time spent up to now is      138.0 secs

     total energy              =    -495.70178634 Ry
     estimated scf accuracy    <       1.38954872 Ry

     total magnetization       =     8.00 Bohr mag/cell
     absolute magnetization    =     8.13 Bohr mag/cell

     iteration # 21     ecut=    48.00 Ry     beta= 0.50
     Davidson diagonalization with overlap
     ethr =  3.37E-05,  avg # of iterations =  9.1

     negative rho (up, down):  1.134E-02 4.640E-03

     total cpu time spent up to now is      144.6 secs

     total energy              =    -495.70011648 Ry
     estimated scf accuracy    <       0.73053639 Ry

     total magnetization       =     8.00 Bohr mag/cell
     absolute magnetization    =     8.30 Bohr mag/cell

     iteration # 22     ecut=    48.00 Ry     beta= 0.50
     Davidson diagonalization with overlap
     ethr =  3.37E-05,  avg # of iterations =  1.3

     negative rho (up, down):  1.079E-02 4.362E-03

     total cpu time spent up to now is      149.4 secs

     total energy              =    -495.69118433 Ry
     estimated scf accuracy    <       0.70220092 Ry

     total magnetization       =     8.00 Bohr mag/cell
     absolute magnetization    =     8.30 Bohr mag/cell

     iteration # 23     ecut=    48.00 Ry     beta= 0.50
     Davidson diagonalization with overlap
     c_bands:  2 eigenvalues not converged
     c_bands:  3 eigenvalues not converged
     c_bands:  1 eigenvalues not converged
     c_bands:  2 eigenvalues not converged
     c_bands:  2 eigenvalues not converged
     c_bands:  1 eigenvalues not converged
     c_bands:  2 eigenvalues not converged
     c_bands:  2 eigenvalues not converged
     c_bands:  2 eigenvalues not converged
     c_bands:  2 eigenvalues not converged
     c_bands:  2 eigenvalues not converged
     c_bands:  3 eigenvalues not converged
     ethr =  3.37E-05,  avg # of iterations = 18.5

     negative rho (up, down):  1.014E-02 4.655E-03

     total cpu time spent up to now is      159.6 secs

     total energy              =    -495.61247657 Ry
     estimated scf accuracy    <       0.65379175 Ry

     total magnetization       =     8.00 Bohr mag/cell
     absolute magnetization    =     8.15 Bohr mag/cell

     iteration # 24     ecut=    48.00 Ry     beta= 0.50
     Davidson diagonalization with overlap
     c_bands:  2 eigenvalues not converged
     c_bands:  1 eigenvalues not converged
     c_bands:  3 eigenvalues not converged
     ethr =  3.37E-05,  avg # of iterations = 15.6

     negative rho (up, down):  7.805E-03 4.480E-03

     total cpu time spent up to now is      169.9 secs

     total energy              =    -495.67484285 Ry
     estimated scf accuracy    <       0.13267961 Ry

     total magnetization       =     8.00 Bohr mag/cell
     absolute magnetization    =     8.55 Bohr mag/cell

     iteration # 25     ecut=    48.00 Ry     beta= 0.50
     Davidson diagonalization with overlap
     ethr =  3.37E-05,  avg # of iterations =  9.6

     negative rho (up, down):  6.985E-03 4.521E-03

     total cpu time spent up to now is      177.5 secs

     total energy              =    -495.67426033 Ry
     estimated scf accuracy    <       0.10954499 Ry

     total magnetization       =     8.00 Bohr mag/cell
     absolute magnetization    =     8.45 Bohr mag/cell

     iteration # 26     ecut=    48.00 Ry     beta= 0.50
     Davidson diagonalization with overlap
     ethr =  3.37E-05,  avg # of iterations =  3.1

     negative rho (up, down):  5.735E-03 4.747E-03

     total cpu time spent up to now is      182.9 secs

     total energy              =    -495.66064373 Ry
     estimated scf accuracy    <       0.08706927 Ry

     total magnetization       =     8.00 Bohr mag/cell
     absolute magnetization    =     8.46 Bohr mag/cell

     iteration # 27     ecut=    48.00 Ry     beta= 0.50
     Davidson diagonalization with overlap
     ethr =  3.37E-05,  avg # of iterations = 10.4

     negative rho (up, down):  5.327E-03 4.744E-03

     total cpu time spent up to now is      190.7 secs

     total energy              =    -495.67239701 Ry
     estimated scf accuracy    <       0.01140988 Ry

     total magnetization       =     8.00 Bohr mag/cell
     absolute magnetization    =     8.68 Bohr mag/cell

     iteration # 28     ecut=    48.00 Ry     beta= 0.50
     Davidson diagonalization with overlap
     ethr =  3.37E-05,  avg # of iterations =  1.1

     negative rho (up, down):  4.938E-03 4.804E-03

     total cpu time spent up to now is      195.5 secs

     total energy              =    -495.67253214 Ry
     estimated scf accuracy    <       0.00686506 Ry

     total magnetization       =     8.00 Bohr mag/cell
     absolute magnetization    =     8.68 Bohr mag/cell

     iteration # 29     ecut=    48.00 Ry     beta= 0.50
     Davidson diagonalization with overlap
     ethr =  2.45E-05,  avg # of iterations =  1.0

     negative rho (up, down):  4.809E-03 4.743E-03

     total cpu time spent up to now is      200.3 secs

     total energy              =    -495.67190846 Ry
     estimated scf accuracy    <       0.00330736 Ry

     total magnetization       =     8.00 Bohr mag/cell
     absolute magnetization    =     8.67 Bohr mag/cell

     iteration # 30     ecut=    48.00 Ry     beta= 0.50
     Davidson diagonalization with overlap
     c_bands:  1 eigenvalues not converged
     ethr =  1.18E-05,  avg # of iterations = 10.2

     negative rho (up, down):  4.843E-03 4.741E-03

     total cpu time spent up to now is      207.4 secs

     total energy              =    -495.67309158 Ry
     estimated scf accuracy    <       0.00272696 Ry

     total magnetization       =     8.00 Bohr mag/cell
     absolute magnetization    =     8.60 Bohr mag/cell

     iteration # 31     ecut=    48.00 Ry     beta= 0.50
     Davidson diagonalization with overlap
     ethr =  9.74E-06,  avg # of iterations =  1.2

     negative rho (up, down):  4.782E-03 4.733E-03

     total cpu time spent up to now is      212.3 secs

     total energy              =    -495.67243215 Ry
     estimated scf accuracy    <       0.00254181 Ry

     total magnetization       =     8.00 Bohr mag/cell
     absolute magnetization    =     8.60 Bohr mag/cell

     iteration # 32     ecut=    48.00 Ry     beta= 0.50
     Davidson diagonalization with overlap
     ethr =  9.08E-06,  avg # of iterations =  6.4

     negative rho (up, down):  4.763E-03 4.719E-03

     total cpu time spent up to now is      218.3 secs

     total energy              =    -495.67299502 Ry
     estimated scf accuracy    <       0.00100332 Ry

     total magnetization       =     8.00 Bohr mag/cell
     absolute magnetization    =     8.65 Bohr mag/cell

     iteration # 33     ecut=    48.00 Ry     beta= 0.50
     Davidson diagonalization with overlap
     ethr =  3.58E-06,  avg # of iterations =  3.0

     negative rho (up, down):  4.766E-03 4.711E-03

     total cpu time spent up to now is      223.5 secs

     total energy              =    -495.67638809 Ry
     estimated scf accuracy    <       0.00315406 Ry

     total magnetization       =     8.00 Bohr mag/cell
     absolute magnetization    =     8.70 Bohr mag/cell

     iteration # 34     ecut=    48.00 Ry     beta= 0.50
     Davidson diagonalization with overlap
     ethr =  3.58E-06,  avg # of iterations =  1.0

     negative rho (up, down):  4.772E-03 4.713E-03

     total cpu time spent up to now is      228.3 secs

     total energy              =    -495.67648558 Ry
     estimated scf accuracy    <       0.00269411 Ry

     total magnetization       =     8.00 Bohr mag/cell
     absolute magnetization    =     8.70 Bohr mag/cell

     iteration # 35     ecut=    48.00 Ry     beta= 0.50
     Davidson diagonalization with overlap
     ethr =  3.58E-06,  avg # of iterations =  1.0

     negative rho (up, down):  4.785E-03 4.724E-03

     total cpu time spent up to now is      233.1 secs

     total energy              =    -495.67654279 Ry
     estimated scf accuracy    <       0.00295700 Ry

     total magnetization       =     8.00 Bohr mag/cell
     absolute magnetization    =     8.70 Bohr mag/cell

     iteration # 36     ecut=    48.00 Ry     beta= 0.50
     Davidson diagonalization with overlap
     ethr =  3.58E-06,  avg # of iterations =  1.1

     negative rho (up, down):  4.793E-03 4.723E-03

     total cpu time spent up to now is      237.9 secs

     total energy              =    -495.67653952 Ry
     estimated scf accuracy    <       0.00323571 Ry

     total magnetization       =     8.00 Bohr mag/cell
     absolute magnetization    =     8.70 Bohr mag/cell

     iteration # 37     ecut=    48.00 Ry     beta= 0.50
     Davidson diagonalization with overlap
     ethr =  3.58E-06,  avg # of iterations =  1.0

     negative rho (up, down):  4.784E-03 4.730E-03

     total cpu time spent up to now is      242.8 secs

     total energy              =    -495.67656786 Ry
     estimated scf accuracy    <       0.00322606 Ry

     total magnetization       =     8.00 Bohr mag/cell
     absolute magnetization    =     8.70 Bohr mag/cell

     iteration # 38     ecut=    48.00 Ry     beta= 0.50
     Davidson diagonalization with overlap
     ethr =  3.58E-06,  avg # of iterations =  1.0

     negative rho (up, down):  4.790E-03 4.732E-03

     total cpu time spent up to now is      247.6 secs

     total energy              =    -495.67653854 Ry
     estimated scf accuracy    <       0.00332532 Ry

     total magnetization       =     8.00 Bohr mag/cell
     absolute magnetization    =     8.70 Bohr mag/cell

     iteration # 39     ecut=    48.00 Ry     beta= 0.50
     Davidson diagonalization with overlap
     ethr =  3.58E-06,  avg # of iterations =  1.7

     negative rho (up, down):  4.804E-03 4.724E-03

     total cpu time spent up to now is      252.5 secs

     total energy              =    -495.67644689 Ry
     estimated scf accuracy    <       0.00330133 Ry

     total magnetization       =     8.00 Bohr mag/cell
     absolute magnetization    =     8.70 Bohr mag/cell

     iteration # 40     ecut=    48.00 Ry     beta= 0.50
     Davidson diagonalization with overlap
     ethr =  3.58E-06,  avg # of iterations =  2.1

     negative rho (up, down):  4.816E-03 4.719E-03

     total cpu time spent up to now is      257.5 secs

     total energy              =    -495.67634538 Ry
     estimated scf accuracy    <       0.00306276 Ry

     total magnetization       =     8.00 Bohr mag/cell
     absolute magnetization    =     8.70 Bohr mag/cell

     iteration # 41     ecut=    48.00 Ry     beta= 0.50
     Davidson diagonalization with overlap
     ethr =  3.58E-06,  avg # of iterations =  9.4

     negative rho (up, down):  5.955E-03 4.711E-03

     total cpu time spent up to now is      264.4 secs

     total energy              =    -495.68507137 Ry
     estimated scf accuracy    <       0.17055737 Ry

     total magnetization       =     8.00 Bohr mag/cell
     absolute magnetization    =     8.82 Bohr mag/cell

     iteration # 42     ecut=    48.00 Ry     beta= 0.50
     Davidson diagonalization with overlap
     c_bands:  2 eigenvalues not converged
     ethr =  3.58E-06,  avg # of iterations = 11.0

     negative rho (up, down):  7.015E-03 4.705E-03

     total cpu time spent up to now is      271.8 secs

     total energy              =    -495.68304535 Ry
     estimated scf accuracy    <       0.23439171 Ry

     total magnetization       =     8.00 Bohr mag/cell
     absolute magnetization    =     8.71 Bohr mag/cell

     iteration # 43     ecut=    48.00 Ry     beta= 0.50
     Davidson diagonalization with overlap
     ethr =  3.58E-06,  avg # of iterations =  7.6

     negative rho (up, down):  7.613E-03 4.706E-03

     total cpu time spent up to now is      278.0 secs

     total energy              =    -495.68257556 Ry
     estimated scf accuracy    <       0.16199804 Ry

     total magnetization       =     8.00 Bohr mag/cell
     absolute magnetization    =     8.80 Bohr mag/cell

     iteration # 44     ecut=    48.00 Ry     beta= 0.50
     Davidson diagonalization with overlap
     ethr =  3.58E-06,  avg # of iterations =  5.4

     negative rho (up, down):  7.359E-03 4.710E-03

     total cpu time spent up to now is      283.7 secs

     total energy              =    -495.68201154 Ry
     estimated scf accuracy    <       0.12656575 Ry

     total magnetization       =     8.00 Bohr mag/cell
     absolute magnetization    =     8.85 Bohr mag/cell

     iteration # 45     ecut=    48.00 Ry     beta= 0.50
     Davidson diagonalization with overlap
     c_bands:  1 eigenvalues not converged
     ethr =  3.58E-06,  avg # of iterations =  6.4

     negative rho (up, down):  7.409E-03 4.711E-03

     total cpu time spent up to now is      289.4 secs

     total energy              =    -495.68227841 Ry
     estimated scf accuracy    <       0.10041762 Ry

     total magnetization       =     8.00 Bohr mag/cell
     absolute magnetization    =     8.87 Bohr mag/cell

     iteration # 46     ecut=    48.00 Ry     beta= 0.50
     Davidson diagonalization with overlap
     ethr =  3.58E-06,  avg # of iterations =  1.0

     negative rho (up, down):  7.560E-03 4.713E-03

     total cpu time spent up to now is      294.2 secs

     total energy              =    -495.68210949 Ry
     estimated scf accuracy    <       0.10032002 Ry

     total magnetization       =     8.00 Bohr mag/cell
     absolute magnetization    =     8.87 Bohr mag/cell

     iteration # 47     ecut=    48.00 Ry     beta= 0.50
     Davidson diagonalization with overlap
     ethr =  3.58E-06,  avg # of iterations =  1.1

     negative rho (up, down):  7.541E-03 4.713E-03

     total cpu time spent up to now is      299.0 secs

     total energy              =    -495.68215391 Ry
     estimated scf accuracy    <       0.09941374 Ry

     total magnetization       =     8.00 Bohr mag/cell
     absolute magnetization    =     8.87 Bohr mag/cell

     iteration # 48     ecut=    48.00 Ry     beta= 0.50
     Davidson diagonalization with overlap
     ethr =  3.58E-06,  avg # of iterations =  1.1

     negative rho (up, down):  7.621E-03 4.717E-03

     total cpu time spent up to now is      303.9 secs

     total energy              =    -495.68081249 Ry
     estimated scf accuracy    <       0.09930862 Ry

     total magnetization       =     8.00 Bohr mag/cell
     absolute magnetization    =     8.87 Bohr mag/cell

     iteration # 49     ecut=    48.00 Ry     beta= 0.50
     Davidson diagonalization with overlap
     ethr =  3.58E-06,  avg # of iterations =  2.0

     negative rho (up, down):  1.398E-02 5.086E-03

     total cpu time spent up to now is      308.8 secs

     total energy              =    -495.65875824 Ry
     estimated scf accuracy    <       0.09393396 Ry

     total magnetization       =     8.00 Bohr mag/cell
     absolute magnetization    =     8.87 Bohr mag/cell

     iteration # 50     ecut=    48.00 Ry     beta= 0.50
     Davidson diagonalization with overlap
     c_bands:  1 eigenvalues not converged
     c_bands:  4 eigenvalues not converged
     c_bands:  1 eigenvalues not converged
     c_bands:  4 eigenvalues not converged
     c_bands:  2 eigenvalues not converged
     c_bands:  1 eigenvalues not converged
     c_bands:  3 eigenvalues not converged
     c_bands:  3 eigenvalues not converged
     c_bands:  4 eigenvalues not converged
     c_bands:  3 eigenvalues not converged
     c_bands:  1 eigenvalues not converged
     c_bands:  1 eigenvalues not converged
     c_bands:  2 eigenvalues not converged
     c_bands:  1 eigenvalues not converged
     c_bands:  1 eigenvalues not converged
     c_bands:  2 eigenvalues not converged
     c_bands:  4 eigenvalues not converged
     c_bands:  3 eigenvalues not converged
     ethr =  3.58E-06,  avg # of iterations = 20.0

     negative rho (up, down):  1.437E-02 4.888E-03

     total cpu time spent up to now is      320.4 secs

     total energy              =    -495.70813282 Ry
     estimated scf accuracy    <       0.78824184 Ry

     total magnetization       =     8.00 Bohr mag/cell
     absolute magnetization    =     8.33 Bohr mag/cell

     iteration # 51     ecut=    48.00 Ry     beta= 0.50
     Davidson diagonalization with overlap
     c_bands:  3 eigenvalues not converged
     ethr =  3.58E-06,  avg # of iterations = 12.6

     negative rho (up, down):  1.295E-02 4.741E-03

     total cpu time spent up to now is      328.0 secs

     total energy              =    -495.72033049 Ry
     estimated scf accuracy    <       0.69804784 Ry

     total magnetization       =     8.00 Bohr mag/cell
     absolute magnetization    =     8.40 Bohr mag/cell

     iteration # 52     ecut=    48.00 Ry     beta= 0.50
     Davidson diagonalization with overlap
     ethr =  3.58E-06,  avg # of iterations =  9.4

     negative rho (up, down):  1.431E-02 4.770E-03

     total cpu time spent up to now is      335.5 secs

     total energy              =    -495.71844378 Ry
     estimated scf accuracy    <       0.75654936 Ry

     total magnetization       =     8.00 Bohr mag/cell
     absolute magnetization    =     8.43 Bohr mag/cell

     iteration # 53     ecut=    48.00 Ry     beta= 0.50
     Davidson diagonalization with overlap
     ethr =  3.58E-06,  avg # of iterations =  1.1

     negative rho (up, down):  1.072E-02 4.864E-03

     total cpu time spent up to now is      340.4 secs

     total energy              =    -495.71398245 Ry
     estimated scf accuracy    <       0.74740322 Ry

     total magnetization       =     8.00 Bohr mag/cell
     absolute magnetization    =     8.43 Bohr mag/cell

     iteration # 54     ecut=    48.00 Ry     beta= 0.50
     Davidson diagonalization with overlap
     ethr =  3.58E-06,  avg # of iterations =  9.6

     negative rho (up, down):  1.157E-02 4.776E-03

     total cpu time spent up to now is      347.6 secs

     total energy              =    -495.71492207 Ry
     estimated scf accuracy    <       0.70344093 Ry

     total magnetization       =     8.00 Bohr mag/cell
     absolute magnetization    =     8.44 Bohr mag/cell

     iteration # 55     ecut=    48.00 Ry     beta= 0.50
     Davidson diagonalization with overlap
     c_bands:  1 eigenvalues not converged
     ethr =  3.58E-06,  avg # of iterations =  6.6

     negative rho (up, down):  1.192E-02 4.761E-03

     total cpu time spent up to now is      353.5 secs

     total energy              =    -495.71571760 Ry
     estimated scf accuracy    <       0.65341433 Ry

     total magnetization       =     8.00 Bohr mag/cell
     absolute magnetization    =     8.48 Bohr mag/cell

     iteration # 56     ecut=    48.00 Ry     beta= 0.50
     Davidson diagonalization with overlap
     ethr =  3.58E-06,  avg # of iterations =  3.8

     negative rho (up, down):  1.115E-02 4.745E-03

     total cpu time spent up to now is      358.9 secs

     total energy              =    -495.70224743 Ry
     estimated scf accuracy    <       0.64383093 Ry

     total magnetization       =     8.00 Bohr mag/cell
     absolute magnetization    =     8.50 Bohr mag/cell

     iteration # 57     ecut=    48.00 Ry     beta= 0.50
     Davidson diagonalization with overlap
     c_bands:  2 eigenvalues not converged
     c_bands:  2 eigenvalues not converged
     c_bands:  3 eigenvalues not converged
     c_bands:  3 eigenvalues not converged
     c_bands:  2 eigenvalues not converged
     ethr =  3.58E-06,  avg # of iterations = 13.5

     negative rho (up, down):  1.111E-02 4.718E-03

     total cpu time spent up to now is      366.8 secs

     total energy              =    -495.68638869 Ry
     estimated scf accuracy    <       0.51666475 Ry

     total magnetization       =     8.00 Bohr mag/cell
     absolute magnetization    =     8.56 Bohr mag/cell

     iteration # 58     ecut=    48.00 Ry     beta= 0.50
     Davidson diagonalization with overlap
     c_bands:  2 eigenvalues not converged
     c_bands:  2 eigenvalues not converged
     c_bands:  2 eigenvalues not converged
     c_bands:  3 eigenvalues not converged
     c_bands:  1 eigenvalues not converged
     c_bands:  2 eigenvalues not converged
     c_bands:  2 eigenvalues not converged
     ethr =  3.58E-06,  avg # of iterations = 15.3

     negative rho (up, down):  2.466E-02 4.966E-03

     total cpu time spent up to now is      376.4 secs

     total energy              =    -495.60629339 Ry
     estimated scf accuracy    <       0.37612682 Ry

     total magnetization       =     8.00 Bohr mag/cell
     absolute magnetization    =     8.58 Bohr mag/cell

     iteration # 59     ecut=    48.00 Ry     beta= 0.50
     Davidson diagonalization with overlap
     c_bands:  1 eigenvalues not converged
     c_bands:  1 eigenvalues not converged
     c_bands:  2 eigenvalues not converged
     c_bands:  3 eigenvalues not converged
     c_bands:  5 eigenvalues not converged
     c_bands:  4 eigenvalues not converged
     c_bands:  4 eigenvalues not converged
     c_bands:  5 eigenvalues not converged
     c_bands:  5 eigenvalues not converged
     ethr =  3.58E-06,  avg # of iterations = 18.8

     negative rho (up, down):  1.450E-02 5.645E-03

     total cpu time spent up to now is      389.0 secs

     total energy              =    -495.61965170 Ry
     estimated scf accuracy    <       2.20731911 Ry

     total magnetization       =     8.00 Bohr mag/cell
     absolute magnetization    =     8.08 Bohr mag/cell

     iteration # 60     ecut=    48.00 Ry     beta= 0.50
     Davidson diagonalization with overlap
     c_bands:  1 eigenvalues not converged
     c_bands:  1 eigenvalues not converged
     c_bands:  1 eigenvalues not converged
     c_bands:  1 eigenvalues not converged
     c_bands:  1 eigenvalues not converged
     c_bands:  1 eigenvalues not converged
     c_bands:  2 eigenvalues not converged
     c_bands:  2 eigenvalues not converged
     c_bands:  1 eigenvalues not converged
     c_bands:  2 eigenvalues not converged
     c_bands:  1 eigenvalues not converged
     c_bands:  1 eigenvalues not converged
     ethr =  3.58E-06,  avg # of iterations = 17.2

     negative rho (up, down):  1.265E-02 5.317E-03

     total cpu time spent up to now is      399.8 secs

     total energy              =    -495.58492473 Ry
     estimated scf accuracy    <       0.88478373 Ry

     total magnetization       =     8.00 Bohr mag/cell
     absolute magnetization    =     8.32 Bohr mag/cell

     iteration # 61     ecut=    48.00 Ry     beta= 0.50
     Davidson diagonalization with overlap
     c_bands:  3 eigenvalues not converged
     c_bands:  4 eigenvalues not converged
     c_bands:  3 eigenvalues not converged
     c_bands:  1 eigenvalues not converged
     c_bands:  5 eigenvalues not converged
     ethr =  3.58E-06,  avg # of iterations = 19.6

     negative rho (up, down):  7.868E-03 4.792E-03

     total cpu time spent up to now is      412.1 secs

     total energy              =    -495.67545168 Ry
     estimated scf accuracy    <       0.14760102 Ry

     total magnetization       =     8.00 Bohr mag/cell
     absolute magnetization    =     8.64 Bohr mag/cell

     iteration # 62     ecut=    48.00 Ry     beta= 0.50
     Davidson diagonalization with overlap
     c_bands:  1 eigenvalues not converged
     c_bands:  1 eigenvalues not converged
     ethr =  3.58E-06,  avg # of iterations = 13.3

     negative rho (up, down):  5.813E-03 4.753E-03

     total cpu time spent up to now is      420.9 secs

     total energy              =    -495.67799865 Ry
     estimated scf accuracy    <       0.05490746 Ry

     total magnetization       =     8.00 Bohr mag/cell
     absolute magnetization    =     8.60 Bohr mag/cell

     iteration # 63     ecut=    48.00 Ry     beta= 0.50
     Davidson diagonalization with overlap
     ethr =  3.58E-06,  avg # of iterations =  9.4

     negative rho (up, down):  5.875E-03 4.936E-03

     total cpu time spent up to now is      428.0 secs

     total energy              =    -495.67064339 Ry
     estimated scf accuracy    <       0.03873563 Ry

     total magnetization       =     8.00 Bohr mag/cell
     absolute magnetization    =     8.59 Bohr mag/cell

     iteration # 64     ecut=    48.00 Ry     beta= 0.50
     Davidson diagonalization with overlap
     c_bands:  2 eigenvalues not converged
     c_bands:  4 eigenvalues not converged
     c_bands:  4 eigenvalues not converged
     c_bands:  4 eigenvalues not converged
     c_bands:  1 eigenvalues not converged
     c_bands:  3 eigenvalues not converged
     c_bands:  3 eigenvalues not converged
     c_bands:  4 eigenvalues not converged
     c_bands:  4 eigenvalues not converged
     c_bands:  4 eigenvalues not converged
     ethr =  3.58E-06,  avg # of iterations = 17.2

     negative rho (up, down):  6.152E-03 4.752E-03

     total cpu time spent up to now is      438.6 secs

     total energy              =    -495.67201988 Ry
     estimated scf accuracy    <       0.34501455 Ry

     total magnetization       =     8.00 Bohr mag/cell
     absolute magnetization    =     8.66 Bohr mag/cell

     iteration # 65     ecut=    48.00 Ry     beta= 0.50
     Davidson diagonalization with overlap
     c_bands:  2 eigenvalues not converged
     c_bands:  1 eigenvalues not converged
     c_bands:  2 eigenvalues not converged
     c_bands:  2 eigenvalues not converged
     c_bands:  1 eigenvalues not converged
     c_bands:  1 eigenvalues not converged
     c_bands:  3 eigenvalues not converged
     c_bands:  1 eigenvalues not converged
     ethr =  3.58E-06,  avg # of iterations = 16.3

     negative rho (up, down):  6.471E-03 4.733E-03

     total cpu time spent up to now is      447.7 secs

     total energy              =    -495.67953203 Ry
     estimated scf accuracy    <       0.18702131 Ry

     total magnetization       =     8.00 Bohr mag/cell
     absolute magnetization    =     8.78 Bohr mag/cell

     iteration # 66     ecut=    48.00 Ry     beta= 0.50
     Davidson diagonalization with overlap
     c_bands:  2 eigenvalues not converged
     ethr =  3.58E-06,  avg # of iterations =  9.4

     negative rho (up, down):  5.863E-03 4.703E-03

     total cpu time spent up to now is      454.7 secs

     total energy              =    -495.67301631 Ry
     estimated scf accuracy    <       0.22580290 Ry

     total magnetization       =     8.00 Bohr mag/cell
     absolute magnetization    =     8.71 Bohr mag/cell

     iteration # 67     ecut=    48.00 Ry     beta= 0.50
     Davidson diagonalization with overlap
     c_bands:  3 eigenvalues not converged
     c_bands:  1 eigenvalues not converged
     c_bands:  1 eigenvalues not converged
     c_bands:  3 eigenvalues not converged
     c_bands:  1 eigenvalues not converged
     c_bands:  3 eigenvalues not converged
     c_bands:  2 eigenvalues not converged
     c_bands:  2 eigenvalues not converged
     c_bands:  1 eigenvalues not converged
     c_bands:  2 eigenvalues not converged
     c_bands:  4 eigenvalues not converged
     c_bands:  4 eigenvalues not converged
     ethr =  3.58E-06,  avg # of iterations = 17.6

     negative rho (up, down):  6.462E-03 4.699E-03

     total cpu time spent up to now is      464.8 secs

     total energy              =    -495.68654322 Ry
     estimated scf accuracy    <       0.13936132 Ry

     total magnetization       =     8.00 Bohr mag/cell
     absolute magnetization    =     8.59 Bohr mag/cell

     iteration # 68     ecut=    48.00 Ry     beta= 0.50
     Davidson diagonalization with overlap
     c_bands:  2 eigenvalues not converged
     c_bands:  2 eigenvalues not converged
     c_bands:  1 eigenvalues not converged
     c_bands:  1 eigenvalues not converged
     ethr =  3.58E-06,  avg # of iterations = 11.9

     negative rho (up, down):  7.388E-03 4.692E-03

     total cpu time spent up to now is      472.5 secs

     total energy              =    -495.68665190 Ry
     estimated scf accuracy    <       0.16922391 Ry

     total magnetization       =     8.00 Bohr mag/cell
     absolute magnetization    =     8.59 Bohr mag/cell

     iteration # 69     ecut=    48.00 Ry     beta= 0.50
     Davidson diagonalization with overlap
     ethr =  3.58E-06,  avg # of iterations =  3.9

     negative rho (up, down):  8.582E-03 4.694E-03

     total cpu time spent up to now is      477.8 secs

     total energy              =    -495.68737123 Ry
     estimated scf accuracy    <       0.16931311 Ry

     total magnetization       =     8.00 Bohr mag/cell
     absolute magnetization    =     8.59 Bohr mag/cell

     iteration # 70     ecut=    48.00 Ry     beta= 0.50
     Davidson diagonalization with overlap
     ethr =  3.58E-06,  avg # of iterations =  1.2

     negative rho (up, down):  9.044E-03 4.701E-03

     total cpu time spent up to now is      482.6 secs

     total energy              =    -495.68747132 Ry
     estimated scf accuracy    <       0.17304471 Ry

     total magnetization       =     8.00 Bohr mag/cell
     absolute magnetization    =     8.59 Bohr mag/cell

     iteration # 71     ecut=    48.00 Ry     beta= 0.50
     Davidson diagonalization with overlap
     ethr =  3.58E-06,  avg # of iterations =  1.0

     negative rho (up, down):  9.173E-03 4.702E-03

     total cpu time spent up to now is      487.4 secs

     total energy              =    -495.68664895 Ry
     estimated scf accuracy    <       0.17393600 Ry

     total magnetization       =     8.00 Bohr mag/cell
     absolute magnetization    =     8.59 Bohr mag/cell

     iteration # 72     ecut=    48.00 Ry     beta= 0.50
     Davidson diagonalization with overlap
     ethr =  3.58E-06,  avg # of iterations =  1.1

     negative rho (up, down):  8.147E-03 4.705E-03

     total cpu time spent up to now is      492.2 secs

     total energy              =    -495.68076148 Ry
     estimated scf accuracy    <       0.17184448 Ry

     total magnetization       =     8.00 Bohr mag/cell
     absolute magnetization    =     8.59 Bohr mag/cell

     iteration # 73     ecut=    48.00 Ry     beta= 0.50
     Davidson diagonalization with overlap
     c_bands:  1 eigenvalues not converged
     ethr =  3.58E-06,  avg # of iterations =  9.3

     negative rho (up, down):  6.827E-03 4.719E-03

     total cpu time spent up to now is      499.2 secs

     total energy              =    -495.67486769 Ry
     estimated scf accuracy    <       0.13596149 Ry

     total magnetization       =     8.00 Bohr mag/cell
     absolute magnetization    =     8.60 Bohr mag/cell

     iteration # 74     ecut=    48.00 Ry     beta= 0.50
     Davidson diagonalization with overlap
     c_bands:  2 eigenvalues not converged
     c_bands:  1 eigenvalues not converged
     c_bands:  1 eigenvalues not converged
     c_bands:  1 eigenvalues not converged
     c_bands:  1 eigenvalues not converged
     c_bands:  2 eigenvalues not converged
     c_bands:  2 eigenvalues not converged
     ethr =  3.58E-06,  avg # of iterations = 14.6

     negative rho (up, down):  5.389E-03 4.724E-03

     total cpu time spent up to now is      508.0 secs

     total energy              =    -495.68593709 Ry
     estimated scf accuracy    <       0.04391705 Ry

     total magnetization       =     8.00 Bohr mag/cell
     absolute magnetization    =     8.94 Bohr mag/cell

     iteration # 75     ecut=    48.00 Ry     beta= 0.50
     Davidson diagonalization with overlap
     c_bands:  1 eigenvalues not converged
     ethr =  3.58E-06,  avg # of iterations =  6.3

     negative rho (up, down):  5.668E-03 4.766E-03

     total cpu time spent up to now is      514.0 secs

     total energy              =    -495.67756892 Ry
     estimated scf accuracy    <       0.05408039 Ry

     total magnetization       =     8.00 Bohr mag/cell
     absolute magnetization    =     9.04 Bohr mag/cell

     iteration # 76     ecut=    48.00 Ry     beta= 0.50
     Davidson diagonalization with overlap
     c_bands:  2 eigenvalues not converged
     c_bands:  2 eigenvalues not converged
     c_bands:  1 eigenvalues not converged
     c_bands:  3 eigenvalues not converged
     ethr =  3.58E-06,  avg # of iterations = 15.4

     negative rho (up, down):  6.896E-03 4.810E-03

     total cpu time spent up to now is      524.2 secs

     total energy              =    -495.67667057 Ry
     estimated scf accuracy    <       0.37205184 Ry

     total magnetization       =     8.00 Bohr mag/cell
     absolute magnetization    =     8.58 Bohr mag/cell

     iteration # 77     ecut=    48.00 Ry     beta= 0.50
     Davidson diagonalization with overlap
     c_bands:  2 eigenvalues not converged
     c_bands:  2 eigenvalues not converged
     c_bands:  2 eigenvalues not converged
     c_bands:  3 eigenvalues not converged
     c_bands:  2 eigenvalues not converged
     c_bands:  2 eigenvalues not converged
     c_bands:  1 eigenvalues not converged
     c_bands:  2 eigenvalues not converged
     c_bands:  1 eigenvalues not converged
     c_bands:  2 eigenvalues not converged
     c_bands:  1 eigenvalues not converged
     ethr =  3.58E-06,  avg # of iterations = 17.3

     negative rho (up, down):  1.036E-02 4.717E-03

     total cpu time spent up to now is      533.9 secs

     total energy              =    -495.69320112 Ry
     estimated scf accuracy    <       0.08477156 Ry

     total magnetization       =     8.00 Bohr mag/cell
     absolute magnetization    =     8.86 Bohr mag/cell

     iteration # 78     ecut=    48.00 Ry     beta= 0.50
     Davidson diagonalization with overlap
     c_bands:  1 eigenvalues not converged
     c_bands:  1 eigenvalues not converged
     c_bands:  1 eigenvalues not converged
     c_bands:  3 eigenvalues not converged
     c_bands:  1 eigenvalues not converged
     c_bands:  2 eigenvalues not converged
     c_bands:  1 eigenvalues not converged
     ethr =  3.58E-06,  avg # of iterations = 17.3

     negative rho (up, down):  1.007E-02 4.742E-03

     total cpu time spent up to now is      543.9 secs

     total energy              =    -495.70049754 Ry
     estimated scf accuracy    <       0.17991481 Ry

     total magnetization       =     8.00 Bohr mag/cell
     absolute magnetization    =     9.33 Bohr mag/cell

     iteration # 79     ecut=    48.00 Ry     beta= 0.50
     Davidson diagonalization with overlap
     c_bands:  1 eigenvalues not converged
     ethr =  3.58E-06,  avg # of iterations =  4.4

     negative rho (up, down):  6.120E-03 5.118E-03

     total cpu time spent up to now is      549.5 secs

     total energy              =    -495.67704982 Ry
     estimated scf accuracy    <       0.16345090 Ry

     total magnetization       =     8.00 Bohr mag/cell
     absolute magnetization    =     9.33 Bohr mag/cell

     iteration # 80     ecut=    48.00 Ry     beta= 0.50
     Davidson diagonalization with overlap
     c_bands:  1 eigenvalues not converged
     c_bands:  1 eigenvalues not converged
     c_bands:  1 eigenvalues not converged
     c_bands:  1 eigenvalues not converged
     c_bands:  1 eigenvalues not converged
     c_bands:  1 eigenvalues not converged
     c_bands:  1 eigenvalues not converged
     c_bands:  1 eigenvalues not converged
     c_bands:  4 eigenvalues not converged
     c_bands:  3 eigenvalues not converged
     c_bands:  3 eigenvalues not converged
     c_bands:  3 eigenvalues not converged
     ethr =  3.58E-06,  avg # of iterations = 19.9

     negative rho (up, down):  9.608E-03 4.733E-03

     total cpu time spent up to now is      560.8 secs

     total energy              =    -495.69157234 Ry
     estimated scf accuracy    <       0.31233404 Ry

     total magnetization       =     8.00 Bohr mag/cell
     absolute magnetization    =     8.71 Bohr mag/cell

     iteration # 81     ecut=    48.00 Ry     beta= 0.50
     Davidson diagonalization with overlap
     c_bands:  1 eigenvalues not converged
     c_bands:  1 eigenvalues not converged
     c_bands:  1 eigenvalues not converged
     ethr =  3.58E-06,  avg # of iterations = 11.6

     negative rho (up, down):  1.449E-02 4.790E-03

     total cpu time spent up to now is      568.0 secs

     total energy              =    -495.69991166 Ry
     estimated scf accuracy    <       0.45254676 Ry

     total magnetization       =     8.00 Bohr mag/cell
     absolute magnetization    =     8.63 Bohr mag/cell

     iteration # 82     ecut=    48.00 Ry     beta= 0.50
     Davidson diagonalization with overlap
     c_bands:  1 eigenvalues not converged
     c_bands:  1 eigenvalues not converged
     ethr =  3.58E-06,  avg # of iterations = 12.0

     negative rho (up, down):  1.707E-02 4.776E-03

     total cpu time spent up to now is      576.1 secs

     total energy              =    -495.70217653 Ry
     estimated scf accuracy    <       0.50483354 Ry

     total magnetization       =     8.00 Bohr mag/cell
     absolute magnetization    =     8.60 Bohr mag/cell

     iteration # 83     ecut=    48.00 Ry     beta= 0.50
     Davidson diagonalization with overlap
     ethr =  3.58E-06,  avg # of iterations =  5.2

     negative rho (up, down):  1.564E-02 4.705E-03

     total cpu time spent up to now is      582.1 secs

     total energy              =    -495.68685799 Ry
     estimated scf accuracy    <       0.51317562 Ry

     total magnetization       =     8.00 Bohr mag/cell
     absolute magnetization    =     8.59 Bohr mag/cell

     iteration # 84     ecut=    48.00 Ry     beta= 0.50
     Davidson diagonalization with overlap
     ethr =  3.58E-06,  avg # of iterations = 10.5

     negative rho (up, down):  1.615E-02 4.669E-03

     total cpu time spent up to now is      589.7 secs

     total energy              =    -495.69573708 Ry
     estimated scf accuracy    <       0.42620142 Ry

     total magnetization       =     8.00 Bohr mag/cell
     absolute magnetization    =     8.59 Bohr mag/cell

     iteration # 85     ecut=    48.00 Ry     beta= 0.50
     Davidson diagonalization with overlap
     ethr =  3.58E-06,  avg # of iterations = 10.1

     negative rho (up, down):  1.868E-02 4.716E-03

     total cpu time spent up to now is      597.3 secs

     total energy              =    -495.72496193 Ry
     estimated scf accuracy    <       0.46308280 Ry

     total magnetization       =     8.00 Bohr mag/cell
     absolute magnetization    =     8.56 Bohr mag/cell

     iteration # 86     ecut=    48.00 Ry     beta= 0.50
     Davidson diagonalization with overlap
     c_bands:  1 eigenvalues not converged
     c_bands:  2 eigenvalues not converged
     c_bands:  1 eigenvalues not converged
     c_bands:  2 eigenvalues not converged
     c_bands:  3 eigenvalues not converged
     c_bands:  2 eigenvalues not converged
     c_bands:  2 eigenvalues not converged
     c_bands:  1 eigenvalues not converged
     c_bands:  1 eigenvalues not converged
     ethr =  3.58E-06,  avg # of iterations = 18.4

     negative rho (up, down):  1.167E-02 4.555E-03

     total cpu time spent up to now is      607.1 secs

     total energy              =    -495.68745591 Ry
     estimated scf accuracy    <       1.41991294 Ry

     total magnetization       =     8.00 Bohr mag/cell
     absolute magnetization    =     8.15 Bohr mag/cell

     iteration # 87     ecut=    48.00 Ry     beta= 0.50
     Davidson diagonalization with overlap
     c_bands:  1 eigenvalues not converged
     c_bands:  2 eigenvalues not converged
     c_bands:  4 eigenvalues not converged
     c_bands:  2 eigenvalues not converged
     c_bands:  2 eigenvalues not converged
     c_bands:  2 eigenvalues not converged
     c_bands:  3 eigenvalues not converged
     c_bands:  3 eigenvalues not converged
     c_bands:  5 eigenvalues not converged
     c_bands:  5 eigenvalues not converged
     c_bands:  5 eigenvalues not converged
     c_bands:  1 eigenvalues not converged
     c_bands:  3 eigenvalues not converged
     c_bands:  5 eigenvalues not converged
     c_bands:  5 eigenvalues not converged
     ethr =  3.58E-06,  avg # of iterations = 19.7

     negative rho (up, down):  1.223E-02 4.634E-03

     total cpu time spent up to now is      619.1 secs

     total energy              =    -495.70691390 Ry
     estimated scf accuracy    <       0.41230812 Ry

     total magnetization       =     8.00 Bohr mag/cell
     absolute magnetization    =     8.25 Bohr mag/cell

     iteration # 88     ecut=    48.00 Ry     beta= 0.50
     Davidson diagonalization with overlap
     c_bands:  1 eigenvalues not converged
     c_bands:  3 eigenvalues not converged
     c_bands:  1 eigenvalues not converged
     c_bands:  3 eigenvalues not converged
     c_bands:  1 eigenvalues not converged
     c_bands:  2 eigenvalues not converged
     ethr =  3.58E-06,  avg # of iterations = 16.7

     negative rho (up, down):  1.117E-02 4.592E-03

     total cpu time spent up to now is      629.9 secs

     total energy              =    -495.68890915 Ry
     estimated scf accuracy    <       1.13608729 Ry

     total magnetization       =     8.00 Bohr mag/cell
     absolute magnetization    =     8.28 Bohr mag/cell

     iteration # 89     ecut=    48.00 Ry     beta= 0.50
     Davidson diagonalization with overlap
     c_bands:  1 eigenvalues not converged
     c_bands:  2 eigenvalues not converged
     c_bands:  1 eigenvalues not converged
     c_bands:  1 eigenvalues not converged
     c_bands:  1 eigenvalues not converged
     ethr =  3.58E-06,  avg # of iterations = 16.2

     negative rho (up, down):  8.442E-03 4.624E-03

     total cpu time spent up to now is      639.5 secs

     total energy              =    -495.65971845 Ry
     estimated scf accuracy    <       0.52447578 Ry

     total magnetization       =     8.00 Bohr mag/cell
     absolute magnetization    =     8.50 Bohr mag/cell

     iteration # 90     ecut=    48.00 Ry     beta= 0.50
     Davidson diagonalization with overlap
     c_bands:  3 eigenvalues not converged
     c_bands:  1 eigenvalues not converged
     c_bands:  2 eigenvalues not converged
     c_bands:  2 eigenvalues not converged
     c_bands:  1 eigenvalues not converged
     c_bands:  1 eigenvalues not converged
     c_bands:  1 eigenvalues not converged
     c_bands:  4 eigenvalues not converged
     c_bands:  1 eigenvalues not converged
     c_bands:  4 eigenvalues not converged
     c_bands:  4 eigenvalues not converged
     c_bands:  1 eigenvalues not converged
     c_bands:  1 eigenvalues not converged
     c_bands:  2 eigenvalues not converged
     c_bands:  3 eigenvalues not converged
     c_bands:  5 eigenvalues not converged
     ethr =  3.58E-06,  avg # of iterations = 21.8

     negative rho (up, down):  7.082E-03 4.979E-03

     total cpu time spent up to now is      652.3 secs

     total energy              =    -495.67300953 Ry
     estimated scf accuracy    <       0.40408559 Ry

     total magnetization       =     8.00 Bohr mag/cell
     absolute magnetization    =     8.65 Bohr mag/cell

     iteration # 91     ecut=    48.00 Ry     beta= 0.50
     Davidson diagonalization with overlap
     c_bands:  3 eigenvalues not converged
     c_bands:  3 eigenvalues not converged
     c_bands:  3 eigenvalues not converged
     c_bands:  3 eigenvalues not converged
     c_bands:  3 eigenvalues not converged
     c_bands:  3 eigenvalues not converged
     c_bands:  4 eigenvalues not converged
     c_bands:  3 eigenvalues not converged
     c_bands:  3 eigenvalues not converged
     c_bands:  3 eigenvalues not converged
     c_bands:  1 eigenvalues not converged
     c_bands:  1 eigenvalues not converged
     c_bands:  1 eigenvalues not converged
     c_bands:  4 eigenvalues not converged
     ethr =  3.58E-06,  avg # of iterations = 22.3

     negative rho (up, down):  6.695E-03 4.653E-03

     total cpu time spent up to now is      664.7 secs

     total energy              =    -495.68154742 Ry
     estimated scf accuracy    <       0.06401260 Ry

     total magnetization       =     8.00 Bohr mag/cell
     absolute magnetization    =     8.60 Bohr mag/cell

     iteration # 92     ecut=    48.00 Ry     beta= 0.50
     Davidson diagonalization with overlap
     c_bands:  2 eigenvalues not converged
     c_bands:  2 eigenvalues not converged
     c_bands:  1 eigenvalues not converged
     ethr =  3.58E-06,  avg # of iterations = 13.5

     negative rho (up, down):  9.621E-03 4.640E-03

     total cpu time spent up to now is      673.3 secs

     total energy              =    -495.68104274 Ry
     estimated scf accuracy    <       0.05086237 Ry

     total magnetization       =     8.00 Bohr mag/cell
     absolute magnetization    =     8.63 Bohr mag/cell

     iteration # 93     ecut=    48.00 Ry     beta= 0.50
     Davidson diagonalization with overlap
     c_bands:  1 eigenvalues not converged
     c_bands:  1 eigenvalues not converged
     c_bands:  4 eigenvalues not converged
     c_bands:  2 eigenvalues not converged
     c_bands:  2 eigenvalues not converged
     c_bands:  1 eigenvalues not converged
     c_bands:  3 eigenvalues not converged
     c_bands:  1 eigenvalues not converged
     c_bands:  2 eigenvalues not converged
     c_bands:  5 eigenvalues not converged
     ethr =  3.58E-06,  avg # of iterations = 17.7

     negative rho (up, down):  9.881E-03 4.797E-03

     total cpu time spent up to now is      684.0 secs

     total energy              =    -495.67707318 Ry
     estimated scf accuracy    <       0.28263252 Ry

     total magnetization       =     8.00 Bohr mag/cell
     absolute magnetization    =     8.67 Bohr mag/cell

     iteration # 94     ecut=    48.00 Ry     beta= 0.50
     Davidson diagonalization with overlap
     c_bands:  3 eigenvalues not converged
     c_bands:  3 eigenvalues not converged
     c_bands:  3 eigenvalues not converged
     c_bands:  3 eigenvalues not converged
     c_bands:  3 eigenvalues not converged
     c_bands:  3 eigenvalues not converged
     c_bands:  4 eigenvalues not converged
     c_bands:  3 eigenvalues not converged
     c_bands:  3 eigenvalues not converged
     c_bands:  2 eigenvalues not converged
     c_bands:  1 eigenvalues not converged
     c_bands:  1 eigenvalues not converged
     c_bands:  1 eigenvalues not converged
     c_bands:  2 eigenvalues not converged
     c_bands:  4 eigenvalues not converged
     c_bands:  5 eigenvalues not converged
     ethr =  3.58E-06,  avg # of iterations = 21.0

     negative rho (up, down):  1.020E-02 5.350E-03

     total cpu time spent up to now is      695.8 secs

     total energy              =    -495.68334136 Ry
     estimated scf accuracy    <       0.21522333 Ry

     total magnetization       =     8.00 Bohr mag/cell
     absolute magnetization    =     8.57 Bohr mag/cell

     iteration # 95     ecut=    48.00 Ry     beta= 0.50
     Davidson diagonalization with overlap
     c_bands:  2 eigenvalues not converged
     c_bands:  2 eigenvalues not converged
     c_bands:  1 eigenvalues not converged
     c_bands:  2 eigenvalues not converged
     c_bands:  2 eigenvalues not converged
     c_bands:  2 eigenvalues not converged
     c_bands:  2 eigenvalues not converged
     c_bands:  2 eigenvalues not converged
     c_bands:  2 eigenvalues not converged
     c_bands:  2 eigenvalues not converged
     c_bands:  1 eigenvalues not converged
     c_bands:  2 eigenvalues not converged
     c_bands:  4 eigenvalues not converged
     c_bands:  3 eigenvalues not converged
     ethr =  3.58E-06,  avg # of iterations = 18.6

     negative rho (up, down):  8.536E-03 4.673E-03

     total cpu time spent up to now is      706.4 secs

     total energy              =    -495.67847515 Ry
     estimated scf accuracy    <       0.34244061 Ry

     total magnetization       =     8.00 Bohr mag/cell
     absolute magnetization    =     8.61 Bohr mag/cell

     iteration # 96     ecut=    48.00 Ry     beta= 0.50
     Davidson diagonalization with overlap
     c_bands:  2 eigenvalues not converged
     c_bands:  2 eigenvalues not converged
     c_bands:  1 eigenvalues not converged
     c_bands:  1 eigenvalues not converged
     c_bands:  2 eigenvalues not converged
     c_bands:  2 eigenvalues not converged
     c_bands:  1 eigenvalues not converged
     c_bands:  1 eigenvalues not converged
     c_bands:  5 eigenvalues not converged
     c_bands:  3 eigenvalues not converged
     c_bands:  3 eigenvalues not converged
     c_bands:  1 eigenvalues not converged
     c_bands:  1 eigenvalues not converged
     c_bands:  1 eigenvalues not converged
     c_bands:  2 eigenvalues not converged
     c_bands:  4 eigenvalues not converged
     ethr =  3.58E-06,  avg # of iterations = 19.2

     negative rho (up, down):  8.908E-03 4.627E-03

     total cpu time spent up to now is      716.8 secs

     total energy              =    -495.68242373 Ry
     estimated scf accuracy    <       0.10631884 Ry

     total magnetization       =     8.00 Bohr mag/cell
     absolute magnetization    =     8.84 Bohr mag/cell

     iteration # 97     ecut=    48.00 Ry     beta= 0.50
     Davidson diagonalization with overlap
     c_bands:  1 eigenvalues not converged
     c_bands:  1 eigenvalues not converged
     ethr =  3.58E-06,  avg # of iterations =  8.4

     negative rho (up, down):  6.829E-03 4.639E-03

     total cpu time spent up to now is      723.5 secs

     total energy              =    -495.68241425 Ry
     estimated scf accuracy    <       0.08175144 Ry

     total magnetization       =     8.00 Bohr mag/cell
     absolute magnetization    =     8.83 Bohr mag/cell

     iteration # 98     ecut=    48.00 Ry     beta= 0.50
     Davidson diagonalization with overlap
     c_bands:  1 eigenvalues not converged
     c_bands:  1 eigenvalues not converged
     c_bands:  1 eigenvalues not converged
     c_bands:  2 eigenvalues not converged
     c_bands:  1 eigenvalues not converged
     c_bands:  1 eigenvalues not converged
     ethr =  3.58E-06,  avg # of iterations = 15.9

     negative rho (up, down):  9.142E-03 4.733E-03

     total cpu time spent up to now is      732.7 secs

     total energy              =    -495.67998606 Ry
     estimated scf accuracy    <       0.08319408 Ry

     total magnetization       =     8.00 Bohr mag/cell
     absolute magnetization    =     8.72 Bohr mag/cell

     iteration # 99     ecut=    48.00 Ry     beta= 0.50
     Davidson diagonalization with overlap
     c_bands:  2 eigenvalues not converged
     c_bands:  1 eigenvalues not converged
     c_bands:  1 eigenvalues not converged
     c_bands:  2 eigenvalues not converged
     c_bands:  1 eigenvalues not converged
     c_bands:  2 eigenvalues not converged
     c_bands:  2 eigenvalues not converged
     c_bands:  1 eigenvalues not converged
     c_bands:  2 eigenvalues not converged
     c_bands:  4 eigenvalues not converged
     c_bands:  1 eigenvalues not converged
     ethr =  3.58E-06,  avg # of iterations = 18.6

     negative rho (up, down):  5.748E-03 4.648E-03

     total cpu time spent up to now is      742.6 secs

     total energy              =    -495.68330721 Ry
     estimated scf accuracy    <       0.02797458 Ry

     total magnetization       =     8.00 Bohr mag/cell
     absolute magnetization    =     8.79 Bohr mag/cell

     iteration #100     ecut=    48.00 Ry     beta= 0.50
     Davidson diagonalization with overlap
     ethr =  3.58E-06,  avg # of iterations =  8.9

     negative rho (up, down):  4.881E-03 4.640E-03

     total cpu time spent up to now is      749.2 secs

     total energy              =    -495.68314595 Ry
     estimated scf accuracy    <       0.02050778 Ry

     total magnetization       =     8.00 Bohr mag/cell
     absolute magnetization    =     8.84 Bohr mag/cell

     iteration #101     ecut=    48.00 Ry     beta= 0.50
     Davidson diagonalization with overlap
     c_bands:  2 eigenvalues not converged
     c_bands:  2 eigenvalues not converged
     c_bands:  2 eigenvalues not converged
     c_bands:  2 eigenvalues not converged
     c_bands:  1 eigenvalues not converged
     c_bands:  1 eigenvalues not converged
     ethr =  3.58E-06,  avg # of iterations = 14.2

     negative rho (up, down):  6.531E-03 4.630E-03

     total cpu time spent up to now is      757.2 secs

     total energy              =    -495.68470196 Ry
     estimated scf accuracy    <       0.06246593 Ry

     total magnetization       =     8.00 Bohr mag/cell
     absolute magnetization    =     8.86 Bohr mag/cell

     iteration #102     ecut=    48.00 Ry     beta= 0.50
     Davidson diagonalization with overlap
     ethr =  3.58E-06,  avg # of iterations =  2.1

     negative rho (up, down):  7.194E-03 4.632E-03

     total cpu time spent up to now is      762.2 secs

     total energy              =    -495.68396239 Ry
     estimated scf accuracy    <       0.06161391 Ry

     total magnetization       =     8.00 Bohr mag/cell
     absolute magnetization    =     8.85 Bohr mag/cell

     iteration #103     ecut=    48.00 Ry     beta= 0.50
     Davidson diagonalization with overlap
     ethr =  3.58E-06,  avg # of iterations =  1.1

     negative rho (up, down):  7.646E-03 4.650E-03

     total cpu time spent up to now is      767.0 secs

     total energy              =    -495.68273385 Ry
     estimated scf accuracy    <       0.05774136 Ry

     total magnetization       =     8.00 Bohr mag/cell
     absolute magnetization    =     8.85 Bohr mag/cell

     iteration #104     ecut=    48.00 Ry     beta= 0.50
     Davidson diagonalization with overlap
     ethr =  3.58E-06,  avg # of iterations = 10.1

     negative rho (up, down):  5.240E-03 4.668E-03

     total cpu time spent up to now is      773.7 secs

     total energy              =    -495.68397587 Ry
     estimated scf accuracy    <       0.00993620 Ry

     total magnetization       =     8.00 Bohr mag/cell
     absolute magnetization    =     8.79 Bohr mag/cell

     iteration #105     ecut=    48.00 Ry     beta= 0.50
     Davidson diagonalization with overlap
     c_bands:  2 eigenvalues not converged
     c_bands:  1 eigenvalues not converged
     c_bands:  1 eigenvalues not converged
     c_bands:  1 eigenvalues not converged
     ethr =  3.58E-06,  avg # of iterations = 11.2

     negative rho (up, down):  5.239E-03 4.671E-03

     total cpu time spent up to now is      780.8 secs

     total energy              =    -495.68493740 Ry
     estimated scf accuracy    <       0.06256006 Ry

     total magnetization       =     8.00 Bohr mag/cell
     absolute magnetization    =     8.72 Bohr mag/cell

     iteration #106     ecut=    48.00 Ry     beta= 0.50
     Davidson diagonalization with overlap
     ethr =  3.58E-06,  avg # of iterations =  5.0

     negative rho (up, down):  6.320E-03 4.660E-03

     total cpu time spent up to now is      786.3 secs

     total energy              =    -495.68476424 Ry
     estimated scf accuracy    <       0.06375894 Ry

     total magnetization       =     8.00 Bohr mag/cell
     absolute magnetization    =     8.72 Bohr mag/cell

     iteration #107     ecut=    48.00 Ry     beta= 0.50
     Davidson diagonalization with overlap
     c_bands:  1 eigenvalues not converged
     c_bands:  1 eigenvalues not converged
     ethr =  3.58E-06,  avg # of iterations =  6.1

     negative rho (up, down):  8.243E-03 4.680E-03

     total cpu time spent up to now is      792.2 secs

     total energy              =    -495.68650613 Ry
     estimated scf accuracy    <       0.17089042 Ry

     total magnetization       =     8.00 Bohr mag/cell
     absolute magnetization    =     8.70 Bohr mag/cell

     iteration #108     ecut=    48.00 Ry     beta= 0.50
     Davidson diagonalization with overlap
     ethr =  3.58E-06,  avg # of iterations =  7.3

     negative rho (up, down):  1.031E-02 4.662E-03

     total cpu time spent up to now is      798.5 secs

     total energy              =    -495.68529383 Ry
     estimated scf accuracy    <       0.19128640 Ry

     total magnetization       =     8.00 Bohr mag/cell
     absolute magnetization    =     8.66 Bohr mag/cell

     iteration #109     ecut=    48.00 Ry     beta= 0.50
     Davidson diagonalization with overlap
     ethr =  3.58E-06,  avg # of iterations =  2.0

     negative rho (up, down):  9.678E-03 4.660E-03

     total cpu time spent up to now is      803.6 secs

     total energy              =    -495.68582802 Ry
     estimated scf accuracy    <       0.19038847 Ry

     total magnetization       =     8.00 Bohr mag/cell
     absolute magnetization    =     8.65 Bohr mag/cell

     iteration #110     ecut=    48.00 Ry     beta= 0.50
     Davidson diagonalization with overlap
     ethr =  3.58E-06,  avg # of iterations =  2.9

     negative rho (up, down):  9.921E-03 4.649E-03

     total cpu time spent up to now is      808.9 secs

     total energy              =    -495.68527690 Ry
     estimated scf accuracy    <       0.18788151 Ry

     total magnetization       =     8.00 Bohr mag/cell
     absolute magnetization    =     8.66 Bohr mag/cell

     iteration #111     ecut=    48.00 Ry     beta= 0.50
     Davidson diagonalization with overlap
     ethr =  3.58E-06,  avg # of iterations =  2.4

     negative rho (up, down):  9.846E-03 4.632E-03

     total cpu time spent up to now is      814.0 secs

     total energy              =    -495.68269799 Ry
     estimated scf accuracy    <       0.18486568 Ry

     total magnetization       =     8.00 Bohr mag/cell
     absolute magnetization    =     8.66 Bohr mag/cell

     iteration #112     ecut=    48.00 Ry     beta= 0.50
     Davidson diagonalization with overlap
     c_bands:  1 eigenvalues not converged
     c_bands:  1 eigenvalues not converged
     c_bands:  1 eigenvalues not converged
     ethr =  3.58E-06,  avg # of iterations = 14.1

     negative rho (up, down):  1.093E-02 4.668E-03

     total cpu time spent up to now is      822.0 secs

     total energy              =    -495.68601098 Ry
     estimated scf accuracy    <       0.15031694 Ry

     total magnetization       =     8.00 Bohr mag/cell
     absolute magnetization    =     8.77 Bohr mag/cell

     iteration #113     ecut=    48.00 Ry     beta= 0.50
     Davidson diagonalization with overlap
     c_bands:  2 eigenvalues not converged
     c_bands:  1 eigenvalues not converged
     c_bands:  1 eigenvalues not converged
     ethr =  3.58E-06,  avg # of iterations = 10.9

     negative rho (up, down):  1.160E-02 4.661E-03

     total cpu time spent up to now is      829.4 secs

     total energy              =    -495.68675517 Ry
     estimated scf accuracy    <       0.17941967 Ry

     total magnetization       =     8.00 Bohr mag/cell
     absolute magnetization    =     8.78 Bohr mag/cell

     iteration #114     ecut=    48.00 Ry     beta= 0.50
     Davidson diagonalization with overlap
     ethr =  3.58E-06,  avg # of iterations =  1.3

     negative rho (up, down):  1.112E-02 4.653E-03

     total cpu time spent up to now is      834.3 secs

     total energy              =    -495.68638008 Ry
     estimated scf accuracy    <       0.18302467 Ry

     total magnetization       =     8.00 Bohr mag/cell
     absolute magnetization    =     8.78 Bohr mag/cell

     iteration #115     ecut=    48.00 Ry     beta= 0.50
     Davidson diagonalization with overlap
     ethr =  3.58E-06,  avg # of iterations =  1.1

     negative rho (up, down):  7.054E-03 6.315E-03

     total cpu time spent up to now is      839.1 secs

     total energy              =    -495.64645162 Ry
     estimated scf accuracy    <       0.18073076 Ry

     total magnetization       =     8.00 Bohr mag/cell
     absolute magnetization    =     8.78 Bohr mag/cell

     iteration #116     ecut=    48.00 Ry     beta= 0.50
     Davidson diagonalization with overlap
     c_bands:  1 eigenvalues not converged
     c_bands:  1 eigenvalues not converged
     c_bands:  3 eigenvalues not converged
     c_bands:  1 eigenvalues not converged
     c_bands:  3 eigenvalues not converged
     c_bands:  2 eigenvalues not converged
     c_bands:  2 eigenvalues not converged
     c_bands:  1 eigenvalues not converged
     c_bands:  1 eigenvalues not converged
     c_bands:  1 eigenvalues not converged
     ethr =  3.58E-06,  avg # of iterations = 17.8

     negative rho (up, down):  8.679E-03 4.628E-03

     total cpu time spent up to now is      850.4 secs

     total energy              =    -495.72835013 Ry
     estimated scf accuracy    <       0.73139430 Ry

     total magnetization       =     8.00 Bohr mag/cell
     absolute magnetization    =     8.61 Bohr mag/cell

     iteration #117     ecut=    48.00 Ry     beta= 0.50
     Davidson diagonalization with overlap
     c_bands:  1 eigenvalues not converged
     c_bands:  1 eigenvalues not converged
     c_bands:  1 eigenvalues not converged
     ethr =  3.58E-06,  avg # of iterations = 11.2

     negative rho (up, down):  1.283E-02 4.510E-03

     total cpu time spent up to now is      857.2 secs

     total energy              =    -495.72232131 Ry
     estimated scf accuracy    <       0.70709499 Ry

     total magnetization       =     8.00 Bohr mag/cell
     absolute magnetization    =     8.63 Bohr mag/cell

     iteration #118     ecut=    48.00 Ry     beta= 0.50
     Davidson diagonalization with overlap
     c_bands:  1 eigenvalues not converged
     c_bands:  1 eigenvalues not converged
     ethr =  3.58E-06,  avg # of iterations = 12.5

     negative rho (up, down):  1.293E-02 4.674E-03

     total cpu time spent up to now is      864.5 secs

     total energy              =    -495.70078585 Ry
     estimated scf accuracy    <       0.64721818 Ry

     total magnetization       =     8.00 Bohr mag/cell
     absolute magnetization    =     8.64 Bohr mag/cell

     iteration #119     ecut=    48.00 Ry     beta= 0.50
     Davidson diagonalization with overlap
     c_bands:  1 eigenvalues not converged
     c_bands:  1 eigenvalues not converged
     c_bands:  1 eigenvalues not converged
     c_bands:  1 eigenvalues not converged
     ethr =  3.58E-06,  avg # of iterations = 16.3

     negative rho (up, down):  1.036E-02 4.600E-03

     total cpu time spent up to now is      873.9 secs

[...]
     Davidson diagonalization with overlap
     ethr =  4.50E-09,  avg # of iterations =  6.4

     negative rho (up, down):  5.023E-03 4.623E-03

     total cpu time spent up to now is     3861.5 secs

     total energy              =    -495.68455787 Ry
     estimated scf accuracy    <       0.00456010 Ry

     total magnetization       =     8.00 Bohr mag/cell
     absolute magnetization    =     8.88 Bohr mag/cell

     iteration #468     ecut=    48.00 Ry     beta= 0.50
     Davidson diagonalization with overlap
     ethr =  4.50E-09,  avg # of iterations =  1.4

     negative rho (up, down):  5.051E-03 4.623E-03

     total cpu time spent up to now is     3866.4 secs

     total energy              =    -495.68453884 Ry
     estimated scf accuracy    <       0.00455633 Ry

     total magnetization       =     8.00 Bohr mag/cell
     absolute magnetization    =     8.88 Bohr mag/cell

     iteration #469     ecut=    48.00 Ry     beta= 0.50
     Davidson diagonalization with overlap
     ethr =  4.50E-09,  avg # of iterations =  6.8

     negative rho (up, down):  5.002E-03 4.623E-03

     total cpu time spent up to now is     3872.5 secs

     total energy              =    -495.68454416 Ry
     estimated scf accuracy    <       0.00182832 Ry

     total magnetization       =     8.00 Bohr mag/cell
     absolute magnetization    =     8.88 Bohr mag/cell

     iteration #470     ecut=    48.00 Ry     beta= 0.50
     Davidson diagonalization with overlap
     ethr =  4.50E-09,  avg # of iterations =  1.9

     negative rho (up, down):  4.975E-03 4.623E-03

     total cpu time spent up to now is     3877.5 secs

     total energy              =    -495.68451457 Ry
     estimated scf accuracy    <       0.00181625 Ry

     total magnetization       =     8.00 Bohr mag/cell
     absolute magnetization    =     8.88 Bohr mag/cell

     iteration #471     ecut=    48.00 Ry     beta= 0.50
     Davidson diagonalization with overlap
     c_bands:  1 eigenvalues not converged
     c_bands:  1 eigenvalues not converged
     c_bands:  1 eigenvalues not converged
     c_bands:  2 eigenvalues not converged
     c_bands:  1 eigenvalues not converged
     c_bands:  2 eigenvalues not converged
     c_bands:  1 eigenvalues not converged
     c_bands:  1 eigenvalues not converged
     c_bands:  1 eigenvalues not converged
     ethr =  4.50E-09,  avg # of iterations = 13.1

     negative rho (up, down):  4.870E-03 4.623E-03

     total cpu time spent up to now is     3885.8 secs

     total energy              =    -495.68454955 Ry
     estimated scf accuracy    <       0.00119245 Ry

     total magnetization       =     8.00 Bohr mag/cell
     absolute magnetization    =     8.88 Bohr mag/cell

     iteration #472     ecut=    48.00 Ry     beta= 0.50
     Davidson diagonalization with overlap
     c_bands:  1 eigenvalues not converged
     c_bands:  1 eigenvalues not converged
     c_bands:  1 eigenvalues not converged
     c_bands:  2 eigenvalues not converged
     c_bands:  2 eigenvalues not converged
     c_bands:  1 eigenvalues not converged
     c_bands:  2 eigenvalues not converged
     c_bands:  2 eigenvalues not converged
     c_bands:  1 eigenvalues not converged
     ethr =  4.50E-09,  avg # of iterations = 11.7

     negative rho (up, down):  4.866E-03 4.623E-03

     total cpu time spent up to now is     3893.2 secs

     total energy              =    -495.68455460 Ry
     estimated scf accuracy    <       0.00006947 Ry

     total magnetization       =     8.00 Bohr mag/cell
     absolute magnetization    =     8.89 Bohr mag/cell

     iteration #473     ecut=    48.00 Ry     beta= 0.50
     Davidson diagonalization with overlap
     ethr =  4.50E-09,  avg # of iterations =  1.7

     negative rho (up, down):  4.866E-03 4.624E-03

     total cpu time spent up to now is     3898.2 secs

     total energy              =    -495.68455388 Ry
     estimated scf accuracy    <       0.00008193 Ry

     total magnetization       =     8.00 Bohr mag/cell
     absolute magnetization    =     8.89 Bohr mag/cell

     iteration #474     ecut=    48.00 Ry     beta= 0.50
     Davidson diagonalization with overlap
     ethr =  4.50E-09,  avg # of iterations =  1.0

     negative rho (up, down):  4.867E-03 4.624E-03

     total cpu time spent up to now is     3903.0 secs

     total energy              =    -495.68455312 Ry
     estimated scf accuracy    <       0.00007910 Ry

     total magnetization       =     8.00 Bohr mag/cell
     absolute magnetization    =     8.89 Bohr mag/cell

     iteration #475     ecut=    48.00 Ry     beta= 0.50
     Davidson diagonalization with overlap
     ethr =  4.50E-09,  avg # of iterations =  3.5

     negative rho (up, down):  4.866E-03 4.624E-03

     total cpu time spent up to now is     3908.3 secs

     total energy              =    -495.68455357 Ry
     estimated scf accuracy    <       0.00000551 Ry

     total magnetization       =     8.00 Bohr mag/cell
     absolute magnetization    =     8.89 Bohr mag/cell

     iteration #476     ecut=    48.00 Ry     beta= 0.50
     Davidson diagonalization with overlap
     ethr =  4.50E-09,  avg # of iterations =  1.9

     negative rho (up, down):  4.866E-03 4.624E-03

     total cpu time spent up to now is     3913.2 secs

     total energy              =    -495.68455371 Ry
     estimated scf accuracy    <       0.00000118 Ry

     total magnetization       =     8.00 Bohr mag/cell
     absolute magnetization    =     8.89 Bohr mag/cell

     iteration #477     ecut=    48.00 Ry     beta= 0.50
     Davidson diagonalization with overlap
     ethr =  4.22E-09,  avg # of iterations =  3.9

     negative rho (up, down):  4.865E-03 4.624E-03

     total cpu time spent up to now is     3918.6 secs

     total energy              =    -495.68455449 Ry
     estimated scf accuracy    <       0.00008047 Ry

     total magnetization       =     8.00 Bohr mag/cell
     absolute magnetization    =     8.89 Bohr mag/cell

     iteration #478     ecut=    48.00 Ry     beta= 0.50
     Davidson diagonalization with overlap
     ethr =  4.22E-09,  avg # of iterations =  1.0

     negative rho (up, down):  4.866E-03 4.624E-03

     total cpu time spent up to now is     3923.4 secs

     total energy              =    -495.68455383 Ry
     estimated scf accuracy    <       0.00008050 Ry

     total magnetization       =     8.00 Bohr mag/cell
     absolute magnetization    =     8.89 Bohr mag/cell

     iteration #479     ecut=    48.00 Ry     beta= 0.50
     Davidson diagonalization with overlap
     ethr =  4.22E-09,  avg # of iterations =  1.0

     negative rho (up, down):  4.867E-03 4.624E-03

     total cpu time spent up to now is     3928.2 secs

     total energy              =    -495.68455380 Ry
     estimated scf accuracy    <       0.00007844 Ry

     total magnetization       =     8.00 Bohr mag/cell
     absolute magnetization    =     8.89 Bohr mag/cell

     iteration #480     ecut=    48.00 Ry     beta= 0.50
     Davidson diagonalization with overlap
     ethr =  4.22E-09,  avg # of iterations =  1.0

     negative rho (up, down):  4.868E-03 4.624E-03

     total cpu time spent up to now is     3933.0 secs

     total energy              =    -495.68455210 Ry
     estimated scf accuracy    <       0.00007851 Ry

     total magnetization       =     8.00 Bohr mag/cell
     absolute magnetization    =     8.89 Bohr mag/cell

     iteration #481     ecut=    48.00 Ry     beta= 0.50
     Davidson diagonalization with overlap
     c_bands:  1 eigenvalues not converged
     ethr =  4.22E-09,  avg # of iterations =  6.8

     negative rho (up, down):  4.866E-03 4.624E-03

     total cpu time spent up to now is     3939.1 secs

     total energy              =    -495.68455440 Ry
     estimated scf accuracy    <       0.00020151 Ry

     total magnetization       =     8.00 Bohr mag/cell
     absolute magnetization    =     8.89 Bohr mag/cell

     iteration #482     ecut=    48.00 Ry     beta= 0.50
     Davidson diagonalization with overlap
     ethr =  4.22E-09,  avg # of iterations =  1.6

     negative rho (up, down):  4.869E-03 4.624E-03

     total cpu time spent up to now is     3944.0 secs

     total energy              =    -495.68455403 Ry
     estimated scf accuracy    <       0.00019888 Ry

     total magnetization       =     8.00 Bohr mag/cell
     absolute magnetization    =     8.89 Bohr mag/cell

     iteration #483     ecut=    48.00 Ry     beta= 0.50
     Davidson diagonalization with overlap
     ethr =  4.22E-09,  avg # of iterations =  1.0

     negative rho (up, down):  4.872E-03 4.624E-03

     total cpu time spent up to now is     3948.8 secs

     total energy              =    -495.68455377 Ry
     estimated scf accuracy    <       0.00019807 Ry

     total magnetization       =     8.00 Bohr mag/cell
     absolute magnetization    =     8.89 Bohr mag/cell

     iteration #484     ecut=    48.00 Ry     beta= 0.50
     Davidson diagonalization with overlap
     ethr =  4.22E-09,  avg # of iterations =  1.0

     negative rho (up, down):  4.874E-03 4.624E-03

     total cpu time spent up to now is     3953.6 secs

     total energy              =    -495.68455353 Ry
     estimated scf accuracy    <       0.00019755 Ry

     total magnetization       =     8.00 Bohr mag/cell
     absolute magnetization    =     8.89 Bohr mag/cell

     iteration #485     ecut=    48.00 Ry     beta= 0.50
     Davidson diagonalization with overlap
     ethr =  4.22E-09,  avg # of iterations =  1.0

     negative rho (up, down):  4.875E-03 4.624E-03

     total cpu time spent up to now is     3958.4 secs

     total energy              =    -495.68455340 Ry
     estimated scf accuracy    <       0.00019699 Ry

     total magnetization       =     8.00 Bohr mag/cell
     absolute magnetization    =     8.89 Bohr mag/cell

     iteration #486     ecut=    48.00 Ry     beta= 0.50
     Davidson diagonalization with overlap
     ethr =  4.22E-09,  avg # of iterations =  1.0

     negative rho (up, down):  4.875E-03 4.624E-03

     total cpu time spent up to now is     3963.2 secs

     total energy              =    -495.68455378 Ry
     estimated scf accuracy    <       0.00019602 Ry

     total magnetization       =     8.00 Bohr mag/cell
     absolute magnetization    =     8.89 Bohr mag/cell

     iteration #487     ecut=    48.00 Ry     beta= 0.50
     Davidson diagonalization with overlap
     ethr =  4.22E-09,  avg # of iterations =  1.0

     negative rho (up, down):  4.875E-03 4.624E-03

     total cpu time spent up to now is     3968.0 secs

     total energy              =    -495.68455271 Ry
     estimated scf accuracy    <       0.00019737 Ry

     total magnetization       =     8.00 Bohr mag/cell
     absolute magnetization    =     8.89 Bohr mag/cell

     iteration #488     ecut=    48.00 Ry     beta= 0.50
     Davidson diagonalization with overlap
     ethr =  4.22E-09,  avg # of iterations =  1.9

     negative rho (up, down):  4.874E-03 4.624E-03

     total cpu time spent up to now is     3973.0 secs

     total energy              =    -495.68455279 Ry
     estimated scf accuracy    <       0.00015162 Ry

     total magnetization       =     8.00 Bohr mag/cell
     absolute magnetization    =     8.89 Bohr mag/cell

     iteration #489     ecut=    48.00 Ry     beta= 0.50
     Davidson diagonalization with overlap
     ethr =  4.22E-09,  avg # of iterations =  1.0

     negative rho (up, down):  4.873E-03 4.624E-03

     total cpu time spent up to now is     3977.8 secs

     total energy              =    -495.68455468 Ry
     estimated scf accuracy    <       0.00015085 Ry

     total magnetization       =     8.00 Bohr mag/cell
     absolute magnetization    =     8.89 Bohr mag/cell

     iteration #490     ecut=    48.00 Ry     beta= 0.50
     Davidson diagonalization with overlap
     ethr =  4.22E-09,  avg # of iterations =  1.6

     negative rho (up, down):  4.873E-03 4.624E-03

     total cpu time spent up to now is     3982.7 secs

     total energy              =    -495.68455362 Ry
     estimated scf accuracy    <       0.00020617 Ry

     total magnetization       =     8.00 Bohr mag/cell
     absolute magnetization    =     8.89 Bohr mag/cell

     iteration #491     ecut=    48.00 Ry     beta= 0.50
     Davidson diagonalization with overlap
     ethr =  4.22E-09,  avg # of iterations =  1.0

     negative rho (up, down):  4.874E-03 4.624E-03

     total cpu time spent up to now is     3987.5 secs

     total energy              =    -495.68455081 Ry
     estimated scf accuracy    <       0.00020217 Ry

     total magnetization       =     8.00 Bohr mag/cell
     absolute magnetization    =     8.89 Bohr mag/cell

     iteration #492     ecut=    48.00 Ry     beta= 0.50
     Davidson diagonalization with overlap
     c_bands:  1 eigenvalues not converged
     c_bands:  1 eigenvalues not converged
     c_bands:  1 eigenvalues not converged
     c_bands:  1 eigenvalues not converged
     ethr =  4.22E-09,  avg # of iterations =  8.1

     negative rho (up, down):  4.866E-03 4.624E-03

     total cpu time spent up to now is     3993.8 secs

     total energy              =    -495.68455528 Ry
     estimated scf accuracy    <       0.00002222 Ry

     total magnetization       =     8.00 Bohr mag/cell
     absolute magnetization    =     8.89 Bohr mag/cell

     iteration #493     ecut=    48.00 Ry     beta= 0.50
     Davidson diagonalization with overlap
     c_bands:  1 eigenvalues not converged
     c_bands:  1 eigenvalues not converged
     c_bands:  1 eigenvalues not converged
     c_bands:  1 eigenvalues not converged
     c_bands:  1 eigenvalues not converged
     ethr =  4.22E-09,  avg # of iterations =  9.1

     negative rho (up, down):  4.873E-03 4.624E-03

     total cpu time spent up to now is     4000.4 secs

     total energy              =    -495.68455628 Ry
     estimated scf accuracy    <       0.00097338 Ry

     total magnetization       =     8.00 Bohr mag/cell
     absolute magnetization    =     8.89 Bohr mag/cell

     iteration #494     ecut=    48.00 Ry     beta= 0.50
     Davidson diagonalization with overlap
     ethr =  4.22E-09,  avg # of iterations =  3.1

     negative rho (up, down):  4.886E-03 4.624E-03

     total cpu time spent up to now is     4005.5 secs

     total energy              =    -495.68454758 Ry
     estimated scf accuracy    <       0.00095212 Ry

     total magnetization       =     8.00 Bohr mag/cell
     absolute magnetization    =     8.89 Bohr mag/cell

     iteration #495     ecut=    48.00 Ry     beta= 0.50
     Davidson diagonalization with overlap
     ethr =  4.22E-09,  avg # of iterations =  6.4

     negative rho (up, down):  4.870E-03 4.624E-03

     total cpu time spent up to now is     4011.6 secs

     total energy              =    -495.68455347 Ry
     estimated scf accuracy    <       0.00000027 Ry

     total magnetization       =     8.00 Bohr mag/cell
     absolute magnetization    =     8.89 Bohr mag/cell

     iteration #496     ecut=    48.00 Ry     beta= 0.50
     Davidson diagonalization with overlap
     ethr =  9.67E-10,  avg # of iterations =  2.0

     negative rho (up, down):  4.866E-03 4.624E-03

     total cpu time spent up to now is     4016.6 secs

     total energy              =    -495.68455391 Ry
     estimated scf accuracy    <       0.00000033 Ry

     total magnetization       =     8.00 Bohr mag/cell
     absolute magnetization    =     8.89 Bohr mag/cell

     iteration #497     ecut=    48.00 Ry     beta= 0.50
     Davidson diagonalization with overlap
     ethr =  9.67E-10,  avg # of iterations =  2.1

     negative rho (up, down):  4.865E-03 4.624E-03

     total cpu time spent up to now is     4021.7 secs

     total energy              =    -495.68455405 Ry
     estimated scf accuracy    <       0.00000351 Ry

     total magnetization       =     8.00 Bohr mag/cell
     absolute magnetization    =     8.89 Bohr mag/cell

     iteration #498     ecut=    48.00 Ry     beta= 0.50
     Davidson diagonalization with overlap
     ethr =  9.67E-10,  avg # of iterations =  1.0

     negative rho (up, down):  4.865E-03 4.624E-03

     total cpu time spent up to now is     4026.5 secs

     total energy              =    -495.68455406 Ry
     estimated scf accuracy    <       0.00000362 Ry

     total magnetization       =     8.00 Bohr mag/cell
     absolute magnetization    =     8.89 Bohr mag/cell

     iteration #499     ecut=    48.00 Ry     beta= 0.50
     Davidson diagonalization with overlap
     ethr =  9.67E-10,  avg # of iterations =  1.0

     negative rho (up, down):  4.865E-03 4.624E-03

     total cpu time spent up to now is     4031.3 secs

     total energy              =    -495.68455410 Ry
     estimated scf accuracy    <       0.00000356 Ry

     total magnetization       =     8.00 Bohr mag/cell
     absolute magnetization    =     8.89 Bohr mag/cell

     iteration #500     ecut=    48.00 Ry     beta= 0.50
     Davidson diagonalization with overlap
     ethr =  9.67E-10,  avg # of iterations =  1.0

     negative rho (up, down):  4.865E-03 4.624E-03

     total cpu time spent up to now is     4036.1 secs

     total energy              =    -495.68455409 Ry
     estimated scf accuracy    <       0.00000369 Ry

     total magnetization       =     8.00 Bohr mag/cell
     absolute magnetization    =     8.89 Bohr mag/cell

     End of self-consistent calculation

     convergence NOT achieved after 500 iterations: stopping

     Writing output data file ./mytmp/2Cr0.28.save/
 
     init_run     :      4.15s CPU      4.52s WALL (       1 calls)
     electrons    :   3577.14s CPU   4031.51s WALL (       1 calls)

     Called by init_run:
     wfcinit      :      0.86s CPU      0.90s WALL (       1 calls)
     potinit      :      0.85s CPU      0.90s WALL (       1 calls)
     hinit0       :      0.80s CPU      0.87s WALL (       1 calls)

     Called by electrons:
     c_bands      :   2278.42s CPU   2470.40s WALL (     500 calls)
     sum_band     :    780.41s CPU    918.77s WALL (     500 calls)
     v_of_rho     :    152.10s CPU    171.55s WALL (     501 calls)
     newd         :    243.19s CPU    342.80s WALL (     501 calls)
     PAW_pot      :     65.63s CPU     69.17s WALL (     501 calls)
     mix_rho      :     38.61s CPU     39.29s WALL (     500 calls)

     Called by c_bands:
     init_us_2    :     15.40s CPU     16.17s WALL (   18018 calls)
     cegterg      :   2223.46s CPU   2412.01s WALL (    9124 calls)

     Called by *egterg:
     cdiaghg      :    276.88s CPU    368.83s WALL (  107285 calls)
     h_psi        :   1491.13s CPU   1552.59s WALL (  107303 calls)
     s_psi        :     35.04s CPU     36.10s WALL (  107303 calls)
     g_psi        :      5.84s CPU      6.29s WALL (   98161 calls)

     Called by h_psi:
     h_psi:calbec :     69.28s CPU     71.86s WALL (  107303 calls)
     vloc_psi     :   1359.97s CPU   1416.60s WALL (  107303 calls)
     add_vuspsi   :     53.23s CPU     55.19s WALL (  107303 calls)

     General routines
     calbec       :     77.34s CPU     80.27s WALL (  116303 calls)
     fft          :    130.75s CPU    142.63s WALL (   12523 calls)
     ffts         :      3.77s CPU      3.85s WALL (    2002 calls)
     fftw         :   1286.78s CPU   1339.36s WALL ( 1661270 calls)
     interpolate  :     13.72s CPU     14.03s WALL (    1002 calls)
     davcio       :      0.00s CPU      0.06s WALL (      36 calls)
 
     Parallel routines
     fft_scatt_xy :    222.45s CPU    230.41s WALL ( 1675795 calls)
     fft_scatt_yz :    544.52s CPU    578.22s WALL ( 1675795 calls)
 
     PWSCF        :  59m41.59s CPU      1h 7m WALL

 
   This run was terminated on:  23: 8: 2  30Mar2021            

=------------------------------------------------------------------------------=
   JOB DONE.
=------------------------------------------------------------------------------=
