
     Program PWSCF v.6.7MaX starts on 30Mar2021 at 23: 8: 3 

     This program is part of the open-source Quantum ESPRESSO suite
     for quantum simulation of materials; please cite
         "P. Giannozzi et al., J. Phys.:Condens. Matter 21 395502 (2009);
         "P. Giannozzi et al., J. Phys.:Condens. Matter 29 465901 (2017);
          URL http://www.quantum-espresso.org", 
     in publications or presentations arising from this work. More details at
     http://www.quantum-espresso.org/quote

     Parallel version (MPI), running on    48 processors

     MPI processes distributed on     1 nodes
     R & G space division:  proc/nbgrp/npool/nimage =      48
     Reading input from 2Cr0.3.scf.in

     Current dimensions of program PWSCF are:
     Max number of different atomic species (ntypx) = 10
     Max number of k-points (npk) =  40000
     Max angular momentum in pseudopotentials (lmaxx) =  3
     file Cr.pbe-spn-kjpaw_psl.1.0.0.UPF: wavefunction(s)  3S 3P 3D renormalized
     file Cr.pbe-spn-kjpaw_psl.1.0.0.UPF: wavefunction(s)  3S 3P 3D renormalized

     --------------------------------------------
     Parameters for DFT-D3 Dispersion Correction:
     --------------------------------------------
       Reference C6 values for interpolation: 

         atom   Coordination number   C6
         Cr1        0.000          1381.48
         Cr1        1.827           571.38
         Cr1       10.619           306.69
         Cr2        0.000          1381.48
         Cr2        1.827           571.38
         Cr2       10.619           306.69

       Values used:

         atom   Coordination number  R0_AB[au]  C6      C8
         Cr1        0.014            3.252   1381.48 127495.25
         Cr2        0.014            3.252   1381.48 127495.25

         Molecular C6 ( Ry / a.u.^6 ) =      5525.93


     Subspace diagonalization in iterative solution of the eigenvalue problem:
     one sub-group per band group will be used
     scalapack distributed-memory algorithm (size of sub-group:  6*  6 procs)

 
     Parallelization info
     --------------------
     sticks:   dense  smooth     PW     G-vecs:    dense   smooth      PW
     Min         235      98     26                36277     9874    1408
     Max         236      99     27                36282     9883    1425
     Sum       11311    4741   1285              1741401   474235   68095
 


     bravais-lattice index     =            4
     lattice parameter (alat)  =      18.9275  a.u.
     unit-cell volume          =   10553.3021 (a.u.)^3
     number of atoms/cell      =            2
     number of atomic types    =            2
     number of electrons       =        28.00
     number of Kohn-Sham states=           18
     kinetic-energy cutoff     =      48.0000  Ry
     charge density cutoff     =     457.0000  Ry
     scf convergence threshold =      1.0E-07
     mixing beta               =       0.5000
     number of iterations used =            8  plain     mixing
     Exchange-correlation= SLA  PW   PBX  PBC
                           (   1   4   3   4   0   0   0)

     celldm(1)=  18.927497  celldm(2)=   0.000000  celldm(3)=   1.797125
     celldm(4)=   0.000000  celldm(5)=   0.000000  celldm(6)=   0.000000

     crystal axes: (cart. coord. in units of alat)
               a(1) = (   1.000000   0.000000   0.000000 )  
               a(2) = (  -0.500000   0.866025   0.000000 )  
               a(3) = (   0.000000   0.000000   1.797125 )  

     reciprocal axes: (cart. coord. in units 2 pi/alat)
               b(1) = (  1.000000  0.577350  0.000000 )  
               b(2) = (  0.000000  1.154701  0.000000 )  
               b(3) = (  0.000000  0.000000  0.556444 )  


     PseudoPot. # 1 for Cr read from file:
     /home/sf05/q-e-qe-6.7MaX-Release/pseudo/Cr.pbe-spn-kjpaw_psl.1.0.0.UPF
     MD5 check sum: 198f1a2427a48552563eee314eba32ba
     Pseudo is Projector augmented-wave + core cor, Zval = 14.0
     Generated using &quot;atomic&quot; code by A. Dal Corso  v.6.3
     Shape of augmentation charge: PSQ
     Using radial grid of 1183 points,  6 beta functions with: 
                l(1) =   0
                l(2) =   0
                l(3) =   1
                l(4) =   1
                l(5) =   2
                l(6) =   2
     Q(r) pseudized with 0 coefficients 


     PseudoPot. # 2 for Cr read from file:
     /home/sf05/q-e-qe-6.7MaX-Release/pseudo/Cr.pbe-spn-kjpaw_psl.1.0.0.UPF
     MD5 check sum: 198f1a2427a48552563eee314eba32ba
     Pseudo is Projector augmented-wave + core cor, Zval = 14.0
     Generated using &quot;atomic&quot; code by A. Dal Corso  v.6.3
     Shape of augmentation charge: PSQ
     Using radial grid of 1183 points,  6 beta functions with: 
                l(1) =   0
                l(2) =   0
                l(3) =   1
                l(4) =   1
                l(5) =   2
                l(6) =   2
     Q(r) pseudized with 0 coefficients 


     atomic species   valence    mass     pseudopotential
        Cr1           14.00    51.99610     Cr( 1.00)
        Cr2           14.00    51.99610     Cr( 1.00)

     Starting magnetic structure 
     atomic species   magnetization
        Cr1          1.000
        Cr2          1.000

      4 Sym. Ops. (no inversion) found ( 2 have fractional translation)



   Cartesian axes

     site n.     atom                  positions (alat units)
         1           Cr1 tau(   1) = (   0.5500000   0.4330127   0.8985623  )
         2           Cr2 tau(   2) = (  -0.0500000   0.4330127   0.8985623  )

     number of k points=     9  Gaussian smearing, width (Ry)=  0.0000
                       cart. coord. in units 2pi/alat
        k(    1) = (   0.1666667   0.2886751   0.0000000), wk =   0.1481481
        k(    2) = (   0.1666667  -0.4811252   0.0000000), wk =   0.1481481
        k(    3) = (   0.1666667  -0.0962250   0.0000000), wk =   0.1481481
        k(    4) = (  -0.5000000  -0.8660254   0.0000000), wk =   0.0740741
        k(    5) = (   0.3333333   0.0000000   0.0000000), wk =   0.0740741
        k(    6) = (   0.5000000  -0.0962250   0.0000000), wk =   0.1481481
        k(    7) = (  -0.3333333  -0.3849002   0.0000000), wk =   0.1481481
        k(    8) = (  -0.0000000  -0.1924501   0.0000000), wk =   0.0740741
        k(    9) = (  -1.0000000   0.0000000   0.0000000), wk =   0.0370370

     Dense  grid:  1741401 G-vectors     FFT dimensions: ( 144, 135, 240)

     Smooth grid:   474235 G-vectors     FFT dimensions: (  90,  90, 160)

     Estimated max dynamical RAM per process >     152.07 MB

     Estimated total dynamical RAM >       7.13 GB
     Generating pointlists ...
     new r_m :   0.1650 (alat units)  3.1230 (a.u.) for type    1
     new r_m :   0.1650 (alat units)  3.1230 (a.u.) for type    2

     Initial potential from superposition of free atoms

     starting charge   27.99845, renormalised to   28.00000

     negative rho (up, down):  1.063E-02 3.600E-17
     Starting wfcs are   20 randomized atomic wfcs
     Checking if some PAW data can be deallocated... 

     total cpu time spent up to now is        4.8 secs

     Self-consistent Calculation

     iteration #  1     ecut=    48.00 Ry     beta= 0.50
     Davidson diagonalization with overlap
     ethr =  1.00E-02,  avg # of iterations =  7.6

     negative rho (up, down):  7.837E-03 0.000E+00

     total cpu time spent up to now is       12.6 secs

     total energy              =    -494.14329707 Ry
     estimated scf accuracy    <       4.71994146 Ry

     total magnetization       =     8.00 Bohr mag/cell
     absolute magnetization    =    10.76 Bohr mag/cell

     iteration #  2     ecut=    48.00 Ry     beta= 0.50
     Davidson diagonalization with overlap
     ethr =  1.00E-02,  avg # of iterations =  2.0

     negative rho (up, down):  1.435E-02 3.944E-04

     total cpu time spent up to now is       17.9 secs

     total energy              =    -495.45499204 Ry
     estimated scf accuracy    <       1.29170216 Ry

     total magnetization       =     8.00 Bohr mag/cell
     absolute magnetization    =     9.71 Bohr mag/cell

     iteration #  3     ecut=    48.00 Ry     beta= 0.50
     Davidson diagonalization with overlap
     ethr =  4.61E-03,  avg # of iterations =  1.0

     negative rho (up, down):  3.777E-02 2.138E-02

     total cpu time spent up to now is       22.7 secs

     total energy              =    -495.63510970 Ry
     estimated scf accuracy    <       0.22939890 Ry

     total magnetization       =     8.00 Bohr mag/cell
     absolute magnetization    =     9.36 Bohr mag/cell

     iteration #  4     ecut=    48.00 Ry     beta= 0.50
     Davidson diagonalization with overlap
     ethr =  8.19E-04,  avg # of iterations =  5.4

     negative rho (up, down):  1.670E-02 1.051E-02

     total cpu time spent up to now is       28.7 secs

     total energy              =    -495.66943106 Ry
     estimated scf accuracy    <       0.00645685 Ry

     total magnetization       =     8.00 Bohr mag/cell
     absolute magnetization    =     9.13 Bohr mag/cell

     iteration #  5     ecut=    48.00 Ry     beta= 0.50
     Davidson diagonalization with overlap
     c_bands:  1 eigenvalues not converged
     c_bands:  3 eigenvalues not converged
     c_bands:  4 eigenvalues not converged
     c_bands:  5 eigenvalues not converged
     c_bands:  1 eigenvalues not converged
     c_bands:  1 eigenvalues not converged
     c_bands:  3 eigenvalues not converged
     c_bands:  2 eigenvalues not converged
     c_bands:  4 eigenvalues not converged
     c_bands:  2 eigenvalues not converged
     ethr =  2.31E-05,  avg # of iterations = 16.6

     negative rho (up, down):  1.219E-02 4.945E-03

     total cpu time spent up to now is       39.6 secs

     total energy              =    -495.70824224 Ry
     estimated scf accuracy    <       0.53081604 Ry

     total magnetization       =     8.00 Bohr mag/cell
     absolute magnetization    =     8.43 Bohr mag/cell

     iteration #  6     ecut=    48.00 Ry     beta= 0.50
     Davidson diagonalization with overlap
     ethr =  2.31E-05,  avg # of iterations =  6.3

     negative rho (up, down):  1.351E-02 4.053E-03

     total cpu time spent up to now is       45.5 secs

     total energy              =    -495.69718043 Ry
     estimated scf accuracy    <       0.46430224 Ry

     total magnetization       =     8.00 Bohr mag/cell
     absolute magnetization    =     8.43 Bohr mag/cell

     iteration #  7     ecut=    48.00 Ry     beta= 0.50
     Davidson diagonalization with overlap
     c_bands:  1 eigenvalues not converged
     ethr =  2.31E-05,  avg # of iterations = 10.7

     negative rho (up, down):  1.493E-02 4.343E-03

     total cpu time spent up to now is       52.5 secs

     total energy              =    -495.70434710 Ry
     estimated scf accuracy    <       0.36192114 Ry

     total magnetization       =     8.00 Bohr mag/cell
     absolute magnetization    =     8.45 Bohr mag/cell

     iteration #  8     ecut=    48.00 Ry     beta= 0.50
     Davidson diagonalization with overlap
     ethr =  2.31E-05,  avg # of iterations =  1.7

     negative rho (up, down):  2.035E-02 4.538E-03

     total cpu time spent up to now is       57.4 secs

     total energy              =    -495.69267265 Ry
     estimated scf accuracy    <       0.37954370 Ry

     total magnetization       =     8.00 Bohr mag/cell
     absolute magnetization    =     8.45 Bohr mag/cell

     iteration #  9     ecut=    48.00 Ry     beta= 0.50
     Davidson diagonalization with overlap
     c_bands:  1 eigenvalues not converged
     c_bands:  2 eigenvalues not converged
     c_bands:  3 eigenvalues not converged
     c_bands:  4 eigenvalues not converged
     c_bands:  2 eigenvalues not converged
     c_bands:  1 eigenvalues not converged
     ethr =  2.31E-05,  avg # of iterations = 12.6

     negative rho (up, down):  1.768E-02 4.596E-03

     total cpu time spent up to now is       65.9 secs

     total energy              =    -495.65654840 Ry
     estimated scf accuracy    <       0.39971254 Ry

     total magnetization       =     8.00 Bohr mag/cell
     absolute magnetization    =     8.48 Bohr mag/cell

     iteration # 10     ecut=    48.00 Ry     beta= 0.50
     Davidson diagonalization with overlap
     c_bands:  2 eigenvalues not converged
     c_bands:  1 eigenvalues not converged
     ethr =  2.31E-05,  avg # of iterations = 15.1

     negative rho (up, down):  1.517E-02 4.626E-03

     total cpu time spent up to now is       75.2 secs

     total energy              =    -495.71370905 Ry
     estimated scf accuracy    <       0.58904534 Ry

     total magnetization       =     8.00 Bohr mag/cell
     absolute magnetization    =     8.50 Bohr mag/cell

     iteration # 11     ecut=    48.00 Ry     beta= 0.50
     Davidson diagonalization with overlap
     ethr =  2.31E-05,  avg # of iterations =  6.9

     negative rho (up, down):  1.822E-02 4.785E-03

     total cpu time spent up to now is       81.3 secs

     total energy              =    -495.72720701 Ry
     estimated scf accuracy    <       0.46343103 Ry

     total magnetization       =     8.00 Bohr mag/cell
     absolute magnetization    =     8.56 Bohr mag/cell

     iteration # 12     ecut=    48.00 Ry     beta= 0.50
     Davidson diagonalization with overlap
     ethr =  2.31E-05,  avg # of iterations =  2.1

     negative rho (up, down):  2.412E-02 5.131E-03

     total cpu time spent up to now is       86.4 secs

     total energy              =    -495.76636367 Ry
     estimated scf accuracy    <       0.50660061 Ry

     total magnetization       =     8.00 Bohr mag/cell
     absolute magnetization    =     8.56 Bohr mag/cell

     iteration # 13     ecut=    48.00 Ry     beta= 0.50
     Davidson diagonalization with overlap
     ethr =  2.31E-05,  avg # of iterations =  8.5

     negative rho (up, down):  2.530E-02 5.507E-03

     total cpu time spent up to now is       93.7 secs

     total energy              =    -495.78788379 Ry
     estimated scf accuracy    <       0.77137055 Ry

     total magnetization       =     8.00 Bohr mag/cell
     absolute magnetization    =     8.54 Bohr mag/cell

     iteration # 14     ecut=    48.00 Ry     beta= 0.50
     Davidson diagonalization with overlap
     ethr =  2.31E-05,  avg # of iterations =  2.7

     negative rho (up, down):  2.158E-02 6.192E-03

     total cpu time spent up to now is       98.9 secs

     total energy              =    -495.72856814 Ry
     estimated scf accuracy    <       1.68256944 Ry

     total magnetization       =     8.00 Bohr mag/cell
     absolute magnetization    =     8.17 Bohr mag/cell

     iteration # 15     ecut=    48.00 Ry     beta= 0.50
     Davidson diagonalization with overlap
     ethr =  2.31E-05,  avg # of iterations =  5.0

     negative rho (up, down):  6.965E-03 5.046E-03

     total cpu time spent up to now is      104.9 secs

     total energy              =    -495.86050656 Ry
     estimated scf accuracy    <       0.64317867 Ry

     total magnetization       =     8.00 Bohr mag/cell
     absolute magnetization    =     8.58 Bohr mag/cell

     iteration # 16     ecut=    48.00 Ry     beta= 0.50
     Davidson diagonalization with overlap
     ethr =  2.31E-05,  avg # of iterations = 13.6

     negative rho (up, down):  7.203E-02 7.852E-03

     total cpu time spent up to now is      114.0 secs

     total energy              =    -496.96971353 Ry
     estimated scf accuracy    <       9.03813869 Ry

     total magnetization       =     6.00 Bohr mag/cell
     absolute magnetization    =     6.08 Bohr mag/cell

     iteration # 17     ecut=    48.00 Ry     beta= 0.50
     Davidson diagonalization with overlap
     c_bands:  1 eigenvalues not converged
     c_bands:  1 eigenvalues not converged
     ethr =  2.31E-05,  avg # of iterations = 13.3

     negative rho (up, down):  1.780E-02 6.182E-03

     total cpu time spent up to now is      123.3 secs

     total energy              =    -495.41003224 Ry
     estimated scf accuracy    <      37.16972352 Ry

     total magnetization       =     0.00 Bohr mag/cell
     absolute magnetization    =     0.64 Bohr mag/cell

     iteration # 18     ecut=    48.00 Ry     beta= 0.50
     Davidson diagonalization with overlap
     c_bands:  1 eigenvalues not converged
     c_bands:  1 eigenvalues not converged
     ethr =  2.31E-05,  avg # of iterations = 12.5

     negative rho (up, down):  1.543E-02 6.779E-03

     total cpu time spent up to now is      132.5 secs

     total energy              =    -495.09556831 Ry
     estimated scf accuracy    <       3.73474955 Ry

     total magnetization       =     8.00 Bohr mag/cell
     absolute magnetization    =     8.01 Bohr mag/cell

     iteration # 19     ecut=    48.00 Ry     beta= 0.50
     Davidson diagonalization with overlap
     c_bands:  4 eigenvalues not converged
     c_bands:  1 eigenvalues not converged
     c_bands:  2 eigenvalues not converged
     c_bands:  1 eigenvalues not converged
     c_bands:  1 eigenvalues not converged
     c_bands:  3 eigenvalues not converged
     c_bands:  2 eigenvalues not converged
     c_bands:  2 eigenvalues not converged
     c_bands:  3 eigenvalues not converged
     ethr =  2.31E-05,  avg # of iterations = 19.9

     negative rho (up, down):  1.588E-02 5.816E-03

     total cpu time spent up to now is      145.9 secs

     total energy              =    -495.82394249 Ry
     estimated scf accuracy    <       0.82444341 Ry

     total magnetization       =     8.00 Bohr mag/cell
     absolute magnetization    =     8.15 Bohr mag/cell

     iteration # 20     ecut=    48.00 Ry     beta= 0.50
     Davidson diagonalization with overlap
     c_bands:  1 eigenvalues not converged
     c_bands:  1 eigenvalues not converged
     c_bands:  1 eigenvalues not converged
     ethr =  2.31E-05,  avg # of iterations = 13.5

     negative rho (up, down):  1.272E-02 4.801E-03

     total cpu time spent up to now is      154.4 secs

     total energy              =    -495.65467892 Ry
     estimated scf accuracy    <      15.01953976 Ry

     total magnetization       =     2.89 Bohr mag/cell
     absolute magnetization    =     3.41 Bohr mag/cell

     iteration # 21     ecut=    48.00 Ry     beta= 0.50
     Davidson diagonalization with overlap
     ethr =  2.31E-05,  avg # of iterations =  5.3

     negative rho (up, down):  2.468E-02 5.087E-03

     total cpu time spent up to now is      160.9 secs

     total energy              =    -495.50879322 Ry
     estimated scf accuracy    <       1.71961753 Ry

     total magnetization       =     8.00 Bohr mag/cell
     absolute magnetization    =     8.15 Bohr mag/cell

     iteration # 22     ecut=    48.00 Ry     beta= 0.50
     Davidson diagonalization with overlap
     c_bands:  1 eigenvalues not converged
     c_bands:  3 eigenvalues not converged
     c_bands:  1 eigenvalues not converged
     c_bands:  4 eigenvalues not converged
     c_bands:  1 eigenvalues not converged
     c_bands:  1 eigenvalues not converged
     c_bands:  5 eigenvalues not converged
     c_bands:  1 eigenvalues not converged
     c_bands:  4 eigenvalues not converged
     c_bands:  5 eigenvalues not converged
     c_bands:  4 eigenvalues not converged
     c_bands:  2 eigenvalues not converged
     c_bands:  2 eigenvalues not converged
     ethr =  2.31E-05,  avg # of iterations = 23.0

     negative rho (up, down):  1.072E-02 5.069E-03

     total cpu time spent up to now is      175.0 secs

     total energy              =    -495.67853894 Ry
     estimated scf accuracy    <       0.16691625 Ry

     total magnetization       =     8.00 Bohr mag/cell
     absolute magnetization    =     8.47 Bohr mag/cell

     iteration # 23     ecut=    48.00 Ry     beta= 0.50
     Davidson diagonalization with overlap
     c_bands:  2 eigenvalues not converged
     ethr =  2.31E-05,  avg # of iterations =  8.9

     negative rho (up, down):  6.898E-03 4.943E-03

     total cpu time spent up to now is      182.1 secs

     total energy              =    -495.68543934 Ry
     estimated scf accuracy    <       0.17741043 Ry

     total magnetization       =     8.00 Bohr mag/cell
     absolute magnetization    =     8.45 Bohr mag/cell

     iteration # 24     ecut=    48.00 Ry     beta= 0.50
     Davidson diagonalization with overlap
     ethr =  2.31E-05,  avg # of iterations =  7.7

     negative rho (up, down):  5.576E-03 4.742E-03

     total cpu time spent up to now is      188.7 secs

     total energy              =    -495.64596877 Ry
     estimated scf accuracy    <       0.84105703 Ry

     total magnetization       =     8.00 Bohr mag/cell
     absolute magnetization    =     8.13 Bohr mag/cell

     iteration # 25     ecut=    48.00 Ry     beta= 0.50
     Davidson diagonalization with overlap
     ethr =  2.31E-05,  avg # of iterations =  6.9

     negative rho (up, down):  6.108E-03 4.759E-03

     total cpu time spent up to now is      195.3 secs

     total energy              =    -495.65845473 Ry
     estimated scf accuracy    <       0.15935786 Ry

     total magnetization       =     8.00 Bohr mag/cell
     absolute magnetization    =     8.42 Bohr mag/cell

     iteration # 26     ecut=    48.00 Ry     beta= 0.50
     Davidson diagonalization with overlap
     ethr =  2.31E-05,  avg # of iterations =  1.2

     negative rho (up, down):  6.573E-03 4.977E-03

     total cpu time spent up to now is      200.2 secs

     total energy              =    -495.64896632 Ry
     estimated scf accuracy    <       0.15750942 Ry

     total magnetization       =     8.00 Bohr mag/cell
     absolute magnetization    =     8.41 Bohr mag/cell

     iteration # 27     ecut=    48.00 Ry     beta= 0.50
     Davidson diagonalization with overlap
     ethr =  2.31E-05,  avg # of iterations =  5.0

     negative rho (up, down):  6.446E-03 5.086E-03

     total cpu time spent up to now is      205.8 secs

     total energy              =    -495.64879489 Ry
     estimated scf accuracy    <       0.08938079 Ry

     total magnetization       =     8.00 Bohr mag/cell
     absolute magnetization    =     8.44 Bohr mag/cell

     iteration # 28     ecut=    48.00 Ry     beta= 0.50
     Davidson diagonalization with overlap
     ethr =  2.31E-05,  avg # of iterations =  1.5

     negative rho (up, down):  8.922E-03 5.345E-03

     total cpu time spent up to now is      210.7 secs

     total energy              =    -495.64510749 Ry
     estimated scf accuracy    <       0.07379949 Ry

     total magnetization       =     8.00 Bohr mag/cell
     absolute magnetization    =     8.45 Bohr mag/cell

     iteration # 29     ecut=    48.00 Ry     beta= 0.50
     Davidson diagonalization with overlap
     c_bands:  1 eigenvalues not converged
     c_bands:  1 eigenvalues not converged
     c_bands:  1 eigenvalues not converged
     c_bands:  1 eigenvalues not converged
     c_bands:  2 eigenvalues not converged
     c_bands:  5 eigenvalues not converged
     c_bands:  1 eigenvalues not converged
     ethr =  2.31E-05,  avg # of iterations = 14.1

     negative rho (up, down):  5.247E-03 5.756E-03

     total cpu time spent up to now is      218.9 secs

     total energy              =    -495.67066041 Ry
     estimated scf accuracy    <       0.26102251 Ry

     total magnetization       =     8.00 Bohr mag/cell
     absolute magnetization    =     8.56 Bohr mag/cell

     iteration # 30     ecut=    48.00 Ry     beta= 0.50
     Davidson diagonalization with overlap
     c_bands:  1 eigenvalues not converged
     ethr =  2.31E-05,  avg # of iterations =  8.8

     negative rho (up, down):  5.067E-03 6.232E-03

     total cpu time spent up to now is      225.7 secs

     total energy              =    -495.67422274 Ry
     estimated scf accuracy    <       0.09715404 Ry

     total magnetization       =     8.00 Bohr mag/cell
     absolute magnetization    =     8.66 Bohr mag/cell

     iteration # 31     ecut=    48.00 Ry     beta= 0.50
     Davidson diagonalization with overlap
     ethr =  2.31E-05,  avg # of iterations =  6.6

     negative rho (up, down):  7.022E-03 5.446E-03

     total cpu time spent up to now is      231.9 secs

     total energy              =    -495.68300035 Ry
     estimated scf accuracy    <       0.23728180 Ry

     total magnetization       =     8.00 Bohr mag/cell
     absolute magnetization    =     8.51 Bohr mag/cell

     iteration # 32     ecut=    48.00 Ry     beta= 0.50
     Davidson diagonalization with overlap
     ethr =  2.31E-05,  avg # of iterations =  1.1

     negative rho (up, down):  1.454E-02 5.210E-03

     total cpu time spent up to now is      236.7 secs

     total energy              =    -495.69923431 Ry
     estimated scf accuracy    <       0.22568091 Ry

     total magnetization       =     8.00 Bohr mag/cell
     absolute magnetization    =     8.51 Bohr mag/cell

     iteration # 33     ecut=    48.00 Ry     beta= 0.50
     Davidson diagonalization with overlap
     c_bands:  1 eigenvalues not converged
     ethr =  2.31E-05,  avg # of iterations = 10.1

     negative rho (up, down):  1.269E-02 5.889E-03

     total cpu time spent up to now is      244.0 secs

     total energy              =    -495.69916706 Ry
     estimated scf accuracy    <       0.35672436 Ry

     total magnetization       =     8.00 Bohr mag/cell
     absolute magnetization    =     8.43 Bohr mag/cell

     iteration # 34     ecut=    48.00 Ry     beta= 0.50
     Davidson diagonalization with overlap
     ethr =  2.31E-05,  avg # of iterations =  2.4

     negative rho (up, down):  5.698E-03 7.571E-03

     total cpu time spent up to now is      249.3 secs

     total energy              =    -495.66803677 Ry
     estimated scf accuracy    <       0.28253191 Ry

     total magnetization       =     8.00 Bohr mag/cell
     absolute magnetization    =     8.48 Bohr mag/cell

     iteration # 35     ecut=    48.00 Ry     beta= 0.50
     Davidson diagonalization with overlap
     c_bands:  1 eigenvalues not converged
     c_bands:  1 eigenvalues not converged
     c_bands:  1 eigenvalues not converged
     c_bands:  1 eigenvalues not converged
     c_bands:  1 eigenvalues not converged
     c_bands:  1 eigenvalues not converged
     c_bands:  1 eigenvalues not converged
     c_bands:  1 eigenvalues not converged
     c_bands:  2 eigenvalues not converged
     c_bands:  2 eigenvalues not converged
     c_bands:  2 eigenvalues not converged
     c_bands:  5 eigenvalues not converged
     c_bands:  1 eigenvalues not converged
     ethr =  2.31E-05,  avg # of iterations = 18.1

     negative rho (up, down):  6.974E-03 5.134E-03

     total cpu time spent up to now is      259.9 secs

     total energy              =    -495.69423957 Ry
     estimated scf accuracy    <       0.08998876 Ry

     total magnetization       =     8.00 Bohr mag/cell
     absolute magnetization    =     8.94 Bohr mag/cell

     iteration # 36     ecut=    48.00 Ry     beta= 0.50
     Davidson diagonalization with overlap
     ethr =  2.31E-05,  avg # of iterations =  2.3

     negative rho (up, down):  8.029E-03 4.898E-03

     total cpu time spent up to now is      265.1 secs

     total energy              =    -495.69446903 Ry
     estimated scf accuracy    <       0.06784211 Ry

     total magnetization       =     8.00 Bohr mag/cell
     absolute magnetization    =     8.94 Bohr mag/cell

     iteration # 37     ecut=    48.00 Ry     beta= 0.50
     Davidson diagonalization with overlap
     ethr =  2.31E-05,  avg # of iterations =  1.0

     negative rho (up, down):  9.834E-03 5.510E-03

     total cpu time spent up to now is      269.9 secs

     total energy              =    -495.70294885 Ry
     estimated scf accuracy    <       0.06565084 Ry

     total magnetization       =     8.00 Bohr mag/cell
     absolute magnetization    =     8.93 Bohr mag/cell

     iteration # 38     ecut=    48.00 Ry     beta= 0.50
     Davidson diagonalization with overlap
     c_bands:  2 eigenvalues not converged
     ethr =  2.31E-05,  avg # of iterations =  8.1

     negative rho (up, down):  9.943E-03 5.128E-03

     total cpu time spent up to now is      276.4 secs

     total energy              =    -495.69371196 Ry
     estimated scf accuracy    <       0.17123357 Ry

     total magnetization       =     8.00 Bohr mag/cell
     absolute magnetization    =     8.77 Bohr mag/cell

     iteration # 39     ecut=    48.00 Ry     beta= 0.50
     Davidson diagonalization with overlap
     ethr =  2.31E-05,  avg # of iterations =  5.4

     negative rho (up, down):  6.765E-03 4.973E-03

     total cpu time spent up to now is      282.2 secs

     total energy              =    -495.68383688 Ry
     estimated scf accuracy    <       0.07713229 Ry

     total magnetization       =     8.00 Bohr mag/cell
     absolute magnetization    =     8.93 Bohr mag/cell

     iteration # 40     ecut=    48.00 Ry     beta= 0.50
     Davidson diagonalization with overlap
     c_bands:  1 eigenvalues not converged
     c_bands:  1 eigenvalues not converged
     ethr =  2.31E-05,  avg # of iterations = 15.8

     negative rho (up, down):  5.423E-03 4.808E-03

     total cpu time spent up to now is      290.7 secs

     total energy              =    -495.68690459 Ry
     estimated scf accuracy    <       0.09546825 Ry

     total magnetization       =     8.00 Bohr mag/cell
     absolute magnetization    =     8.67 Bohr mag/cell

     iteration # 41     ecut=    48.00 Ry     beta= 0.50
     Davidson diagonalization with overlap
     ethr =  2.31E-05,  avg # of iterations =  5.7

     negative rho (up, down):  5.299E-03 4.832E-03

     total cpu time spent up to now is      296.4 secs

     total energy              =    -495.68804433 Ry
     estimated scf accuracy    <       0.01471003 Ry

     total magnetization       =     8.00 Bohr mag/cell
     absolute magnetization    =     8.82 Bohr mag/cell

     iteration # 42     ecut=    48.00 Ry     beta= 0.50
     Davidson diagonalization with overlap
     ethr =  2.31E-05,  avg # of iterations =  1.4

     negative rho (up, down):  5.118E-03 4.765E-03

     total cpu time spent up to now is      301.3 secs

     total energy              =    -495.68816119 Ry
     estimated scf accuracy    <       0.00990456 Ry

     total magnetization       =     8.00 Bohr mag/cell
     absolute magnetization    =     8.81 Bohr mag/cell

     iteration # 43     ecut=    48.00 Ry     beta= 0.50
     Davidson diagonalization with overlap
     ethr =  2.31E-05,  avg # of iterations =  1.0

     negative rho (up, down):  5.063E-03 4.755E-03

     total cpu time spent up to now is      306.1 secs

     total energy              =    -495.68826655 Ry
     estimated scf accuracy    <       0.00919453 Ry

     total magnetization       =     8.00 Bohr mag/cell
     absolute magnetization    =     8.80 Bohr mag/cell

     iteration # 44     ecut=    48.00 Ry     beta= 0.50
     Davidson diagonalization with overlap
     ethr =  2.31E-05,  avg # of iterations =  1.4

     negative rho (up, down):  5.308E-03 4.752E-03

     total cpu time spent up to now is      311.0 secs

     total energy              =    -495.68880162 Ry
     estimated scf accuracy    <       0.00899179 Ry

     total magnetization       =     8.00 Bohr mag/cell
     absolute magnetization    =     8.80 Bohr mag/cell

     iteration # 45     ecut=    48.00 Ry     beta= 0.50
     Davidson diagonalization with overlap
     ethr =  2.31E-05,  avg # of iterations =  3.9

     negative rho (up, down):  5.987E-03 4.732E-03

     total cpu time spent up to now is      316.4 secs

     total energy              =    -495.68812888 Ry
     estimated scf accuracy    <       0.08796064 Ry

     total magnetization       =     8.00 Bohr mag/cell
     absolute magnetization    =     8.69 Bohr mag/cell

     iteration # 46     ecut=    48.00 Ry     beta= 0.50
     Davidson diagonalization with overlap
     ethr =  2.31E-05,  avg # of iterations =  1.0

     negative rho (up, down):  6.666E-03 4.735E-03

     total cpu time spent up to now is      321.2 secs

     total energy              =    -495.68477437 Ry
     estimated scf accuracy    <       0.08001936 Ry

     total magnetization       =     8.00 Bohr mag/cell
     absolute magnetization    =     8.69 Bohr mag/cell

     iteration # 47     ecut=    48.00 Ry     beta= 0.50
     Davidson diagonalization with overlap
     ethr =  2.31E-05,  avg # of iterations =  4.8

     negative rho (up, down):  5.239E-03 4.727E-03

     total cpu time spent up to now is      326.7 secs

     total energy              =    -495.68793961 Ry
     estimated scf accuracy    <       0.00166974 Ry

     total magnetization       =     8.00 Bohr mag/cell
     absolute magnetization    =     8.63 Bohr mag/cell

     iteration # 48     ecut=    48.00 Ry     beta= 0.50
     Davidson diagonalization with overlap
     c_bands:  1 eigenvalues not converged
     ethr =  5.96E-06,  avg # of iterations =  8.4

     negative rho (up, down):  5.705E-03 4.720E-03

     total cpu time spent up to now is      333.1 secs

     total energy              =    -495.69061405 Ry
     estimated scf accuracy    <       0.11282872 Ry

     total magnetization       =     8.00 Bohr mag/cell
     absolute magnetization    =     8.62 Bohr mag/cell

     iteration # 49     ecut=    48.00 Ry     beta= 0.50
     Davidson diagonalization with overlap
     ethr =  5.96E-06,  avg # of iterations =  1.0

     negative rho (up, down):  7.470E-03 4.721E-03

     total cpu time spent up to now is      337.9 secs

     total energy              =    -495.68976214 Ry
     estimated scf accuracy    <       0.11072125 Ry

     total magnetization       =     8.00 Bohr mag/cell
     absolute magnetization    =     8.62 Bohr mag/cell

     iteration # 50     ecut=    48.00 Ry     beta= 0.50
     Davidson diagonalization with overlap
     ethr =  5.96E-06,  avg # of iterations =  1.1

     negative rho (up, down):  8.513E-03 4.720E-03

     total cpu time spent up to now is      342.7 secs

     total energy              =    -495.68947206 Ry
     estimated scf accuracy    <       0.10841934 Ry

     total magnetization       =     8.00 Bohr mag/cell
     absolute magnetization    =     8.62 Bohr mag/cell

     iteration # 51     ecut=    48.00 Ry     beta= 0.50
     Davidson diagonalization with overlap
     ethr =  5.96E-06,  avg # of iterations =  1.0

     negative rho (up, down):  9.195E-03 4.721E-03

     total cpu time spent up to now is      347.5 secs

     total energy              =    -495.68958868 Ry
     estimated scf accuracy    <       0.10669383 Ry

     total magnetization       =     8.00 Bohr mag/cell
     absolute magnetization    =     8.62 Bohr mag/cell

     iteration # 52     ecut=    48.00 Ry     beta= 0.50
     Davidson diagonalization with overlap
     ethr =  5.96E-06,  avg # of iterations =  1.0

     negative rho (up, down):  9.618E-03 4.724E-03

     total cpu time spent up to now is      352.3 secs

     total energy              =    -495.68967473 Ry
     estimated scf accuracy    <       0.10697862 Ry

     total magnetization       =     8.00 Bohr mag/cell
     absolute magnetization    =     8.62 Bohr mag/cell

     iteration # 53     ecut=    48.00 Ry     beta= 0.50
     Davidson diagonalization with overlap
     ethr =  5.96E-06,  avg # of iterations =  1.0

     negative rho (up, down):  8.067E-03 4.742E-03

     total cpu time spent up to now is      357.1 secs

     total energy              =    -495.68379368 Ry
     estimated scf accuracy    <       0.10723105 Ry

     total magnetization       =     8.00 Bohr mag/cell
     absolute magnetization    =     8.62 Bohr mag/cell

     iteration # 54     ecut=    48.00 Ry     beta= 0.50
     Davidson diagonalization with overlap
     c_bands:  1 eigenvalues not converged
     c_bands:  1 eigenvalues not converged
     c_bands:  1 eigenvalues not converged
     c_bands:  2 eigenvalues not converged
     c_bands:  2 eigenvalues not converged
     c_bands:  2 eigenvalues not converged
     c_bands:  3 eigenvalues not converged
     ethr =  5.96E-06,  avg # of iterations = 15.9

     negative rho (up, down):  4.896E-03 4.736E-03

     total cpu time spent up to now is      365.5 secs

     total energy              =    -495.69241621 Ry
     estimated scf accuracy    <       0.09158334 Ry

     total magnetization       =     8.00 Bohr mag/cell
     absolute magnetization    =     8.68 Bohr mag/cell

     iteration # 55     ecut=    48.00 Ry     beta= 0.50
     Davidson diagonalization with overlap
     c_bands:  2 eigenvalues not converged
     c_bands:  2 eigenvalues not converged
     c_bands:  4 eigenvalues not converged
     ethr =  5.96E-06,  avg # of iterations =  9.2

     negative rho (up, down):  7.619E-03 4.732E-03

     total cpu time spent up to now is      371.9 secs

     total energy              =    -495.70502488 Ry
     estimated scf accuracy    <       0.21648257 Ry

     total magnetization       =     8.00 Bohr mag/cell
     absolute magnetization    =     8.80 Bohr mag/cell

     iteration # 56     ecut=    48.00 Ry     beta= 0.50
     Davidson diagonalization with overlap
     c_bands:  2 eigenvalues not converged
     ethr =  5.96E-06,  avg # of iterations =  4.4

     negative rho (up, down):  9.763E-03 4.725E-03

     total cpu time spent up to now is      377.4 secs

     total energy              =    -495.70281991 Ry
     estimated scf accuracy    <       0.23289077 Ry

     total magnetization       =     8.00 Bohr mag/cell
     absolute magnetization    =     8.79 Bohr mag/cell

     iteration # 57     ecut=    48.00 Ry     beta= 0.50
     Davidson diagonalization with overlap
     ethr =  5.96E-06,  avg # of iterations =  1.6

     negative rho (up, down):  1.100E-02 4.725E-03

     total cpu time spent up to now is      382.3 secs

     total energy              =    -495.70242229 Ry
     estimated scf accuracy    <       0.22653959 Ry

     total magnetization       =     8.00 Bohr mag/cell
     absolute magnetization    =     8.80 Bohr mag/cell

     iteration # 58     ecut=    48.00 Ry     beta= 0.50
     Davidson diagonalization with overlap
     ethr =  5.96E-06,  avg # of iterations =  1.0

     negative rho (up, down):  1.162E-02 4.727E-03

     total cpu time spent up to now is      387.2 secs

     total energy              =    -495.70117431 Ry
     estimated scf accuracy    <       0.22489723 Ry

     total magnetization       =     8.00 Bohr mag/cell
     absolute magnetization    =     8.79 Bohr mag/cell

     iteration # 59     ecut=    48.00 Ry     beta= 0.50
     Davidson diagonalization with overlap
     ethr =  5.96E-06,  avg # of iterations =  1.1

     negative rho (up, down):  1.171E-02 4.729E-03

     total cpu time spent up to now is      392.0 secs

     total energy              =    -495.70261183 Ry
     estimated scf accuracy    <       0.22026542 Ry

     total magnetization       =     8.00 Bohr mag/cell
     absolute magnetization    =     8.79 Bohr mag/cell

     iteration # 60     ecut=    48.00 Ry     beta= 0.50
     Davidson diagonalization with overlap
     ethr =  5.96E-06,  avg # of iterations =  1.0

     negative rho (up, down):  1.183E-02 4.723E-03

     total cpu time spent up to now is      396.8 secs

     total energy              =    -495.70287997 Ry
     estimated scf accuracy    <       0.22264469 Ry

     total magnetization       =     8.00 Bohr mag/cell
     absolute magnetization    =     8.79 Bohr mag/cell

     iteration # 61     ecut=    48.00 Ry     beta= 0.50
     Davidson diagonalization with overlap
     ethr =  5.96E-06,  avg # of iterations =  1.0

     negative rho (up, down):  1.190E-02 4.724E-03

     total cpu time spent up to now is      401.6 secs

     total energy              =    -495.70261870 Ry
     estimated scf accuracy    <       0.22269095 Ry

     total magnetization       =     8.00 Bohr mag/cell
     absolute magnetization    =     8.79 Bohr mag/cell

     iteration # 62     ecut=    48.00 Ry     beta= 0.50
     Davidson diagonalization with overlap
     ethr =  5.96E-06,  avg # of iterations =  1.0

     negative rho (up, down):  1.121E-02 5.783E-03

     total cpu time spent up to now is      406.5 secs

     total energy              =    -495.64702108 Ry
     estimated scf accuracy    <       0.22191042 Ry

     total magnetization       =     8.00 Bohr mag/cell
     absolute magnetization    =     8.79 Bohr mag/cell

     iteration # 63     ecut=    48.00 Ry     beta= 0.50
     Davidson diagonalization with overlap
     c_bands:  2 eigenvalues not converged
     c_bands:  2 eigenvalues not converged
     c_bands:  2 eigenvalues not converged
     c_bands:  2 eigenvalues not converged
     c_bands:  2 eigenvalues not converged
     c_bands:  2 eigenvalues not converged
     c_bands:  2 eigenvalues not converged
     c_bands:  2 eigenvalues not converged
     c_bands:  2 eigenvalues not converged
     c_bands:  2 eigenvalues not converged
     c_bands:  1 eigenvalues not converged
     c_bands:  4 eigenvalues not converged
     c_bands:  4 eigenvalues not converged
     c_bands:  4 eigenvalues not converged
     c_bands:  2 eigenvalues not converged
     ethr =  5.96E-06,  avg # of iterations = 20.9

     negative rho (up, down):  1.496E-02 5.169E-03

     total cpu time spent up to now is      418.6 secs

     total energy              =    -495.74561638 Ry
     estimated scf accuracy    <       1.59710132 Ry

     total magnetization       =     8.00 Bohr mag/cell
     absolute magnetization    =     8.16 Bohr mag/cell

     iteration # 64     ecut=    48.00 Ry     beta= 0.50
     Davidson diagonalization with overlap
     ethr =  5.96E-06,  avg # of iterations = 10.7

     negative rho (up, down):  1.192E-02 6.461E-03

     total cpu time spent up to now is      426.2 secs

     total energy              =    -495.77862249 Ry
     estimated scf accuracy    <       1.18871929 Ry

     total magnetization       =     8.00 Bohr mag/cell
     absolute magnetization    =     8.24 Bohr mag/cell

     iteration # 65     ecut=    48.00 Ry     beta= 0.50
     Davidson diagonalization with overlap
     ethr =  5.96E-06,  avg # of iterations = 10.6

     negative rho (up, down):  1.367E-02 4.975E-03

     total cpu time spent up to now is      434.8 secs

     total energy              =    -495.71296601 Ry
     estimated scf accuracy    <       1.50272529 Ry

     total magnetization       =     8.00 Bohr mag/cell
     absolute magnetization    =     8.20 Bohr mag/cell

     iteration # 66     ecut=    48.00 Ry     beta= 0.50
     Davidson diagonalization with overlap
     c_bands:  1 eigenvalues not converged
     ethr =  5.96E-06,  avg # of iterations = 16.4

     negative rho (up, down):  1.173E-02 5.151E-03

     total cpu time spent up to now is      443.7 secs

     total energy              =    -495.70296129 Ry
     estimated scf accuracy    <       0.61589759 Ry

     total magnetization       =     8.00 Bohr mag/cell
     absolute magnetization    =     8.53 Bohr mag/cell

     iteration # 67     ecut=    48.00 Ry     beta= 0.50
     Davidson diagonalization with overlap
     c_bands:  3 eigenvalues not converged
     c_bands:  3 eigenvalues not converged
     c_bands:  1 eigenvalues not converged
     c_bands:  2 eigenvalues not converged
     ethr =  5.96E-06,  avg # of iterations = 13.4

     negative rho (up, down):  1.137E-02 5.433E-03

     total cpu time spent up to now is      452.3 secs

     total energy              =    -495.69443413 Ry
     estimated scf accuracy    <       0.48630589 Ry

     total magnetization       =     8.00 Bohr mag/cell
     absolute magnetization    =     8.55 Bohr mag/cell

     iteration # 68     ecut=    48.00 Ry     beta= 0.50
     Davidson diagonalization with overlap
     c_bands:  2 eigenvalues not converged
     c_bands:  2 eigenvalues not converged
     ethr =  5.96E-06,  avg # of iterations =  9.7

     negative rho (up, down):  1.159E-02 5.076E-03

     total cpu time spent up to now is      459.7 secs

     total energy              =    -495.71444834 Ry
     estimated scf accuracy    <       0.44252613 Ry

     total magnetization       =     8.00 Bohr mag/cell
     absolute magnetization    =     8.54 Bohr mag/cell

     iteration # 69     ecut=    48.00 Ry     beta= 0.50
     Davidson diagonalization with overlap
     c_bands:  2 eigenvalues not converged
     ethr =  5.96E-06,  avg # of iterations = 11.3

     negative rho (up, down):  1.192E-02 4.957E-03

     total cpu time spent up to now is      467.2 secs

     total energy              =    -495.71235832 Ry
     estimated scf accuracy    <       0.55027837 Ry

     total magnetization       =     8.00 Bohr mag/cell
     absolute magnetization    =     8.52 Bohr mag/cell

     iteration # 70     ecut=    48.00 Ry     beta= 0.50
     Davidson diagonalization with overlap
     ethr =  5.96E-06,  avg # of iterations =  2.8

     negative rho (up, down):  1.228E-02 5.344E-03

     total cpu time spent up to now is      472.4 secs

     total energy              =    -495.70080870 Ry
     estimated scf accuracy    <       0.53118684 Ry

     total magnetization       =     8.00 Bohr mag/cell
     absolute magnetization    =     8.54 Bohr mag/cell

     iteration # 71     ecut=    48.00 Ry     beta= 0.50
     Davidson diagonalization with overlap
     ethr =  5.96E-06,  avg # of iterations = 10.0

     negative rho (up, down):  1.803E-02 6.171E-03

     total cpu time spent up to now is      479.7 secs

     total energy              =    -495.60636110 Ry
     estimated scf accuracy    <       0.45341147 Ry

     total magnetization       =     8.00 Bohr mag/cell
     absolute magnetization    =     8.58 Bohr mag/cell

     iteration # 72     ecut=    48.00 Ry     beta= 0.50
     Davidson diagonalization with overlap
     c_bands:  1 eigenvalues not converged
     c_bands:  1 eigenvalues not converged
     c_bands:  1 eigenvalues not converged
     c_bands:  1 eigenvalues not converged
     c_bands:  1 eigenvalues not converged
     c_bands:  1 eigenvalues not converged
     c_bands:  2 eigenvalues not converged
     c_bands:  2 eigenvalues not converged
     c_bands:  2 eigenvalues not converged
     ethr =  5.96E-06,  avg # of iterations = 19.2

     negative rho (up, down):  1.443E-02 5.101E-03

     total cpu time spent up to now is      492.2 secs

     total energy              =    -495.65328628 Ry
     estimated scf accuracy    <       1.59912908 Ry

     total magnetization       =     8.00 Bohr mag/cell
     absolute magnetization    =     8.21 Bohr mag/cell

     iteration # 73     ecut=    48.00 Ry     beta= 0.50
     Davidson diagonalization with overlap
     c_bands:  2 eigenvalues not converged
     c_bands:  2 eigenvalues not converged
     c_bands:  2 eigenvalues not converged
     c_bands:  1 eigenvalues not converged
     c_bands:  1 eigenvalues not converged
     c_bands:  1 eigenvalues not converged
     c_bands:  1 eigenvalues not converged
     c_bands:  1 eigenvalues not converged
     ethr =  5.96E-06,  avg # of iterations = 16.6

     negative rho (up, down):  1.206E-02 4.810E-03

     total cpu time spent up to now is      502.7 secs

     total energy              =    -495.69699564 Ry
     estimated scf accuracy    <       0.41609746 Ry

     total magnetization       =     8.00 Bohr mag/cell
     absolute magnetization    =     8.62 Bohr mag/cell

     iteration # 74     ecut=    48.00 Ry     beta= 0.50
     Davidson diagonalization with overlap
     c_bands:  2 eigenvalues not converged
     c_bands:  1 eigenvalues not converged
     c_bands:  1 eigenvalues not converged
     c_bands:  1 eigenvalues not converged
     c_bands:  3 eigenvalues not converged
     ethr =  5.96E-06,  avg # of iterations =  9.8

     negative rho (up, down):  1.047E-02 5.294E-03

     total cpu time spent up to now is      510.0 secs

     total energy              =    -495.62891423 Ry
     estimated scf accuracy    <       0.37450805 Ry

     total magnetization       =     8.00 Bohr mag/cell
     absolute magnetization    =     8.63 Bohr mag/cell

     iteration # 75     ecut=    48.00 Ry     beta= 0.50
     Davidson diagonalization with overlap
     c_bands:  3 eigenvalues not converged
     c_bands:  2 eigenvalues not converged
     c_bands:  1 eigenvalues not converged
     c_bands:  4 eigenvalues not converged
     c_bands:  1 eigenvalues not converged
     c_bands:  2 eigenvalues not converged
     c_bands:  1 eigenvalues not converged
     c_bands:  2 eigenvalues not converged
     c_bands:  4 eigenvalues not converged
     ethr =  5.96E-06,  avg # of iterations = 16.2

     negative rho (up, down):  7.631E-03 6.784E-03

     total cpu time spent up to now is      521.6 secs

     total energy              =    -495.68739405 Ry
     estimated scf accuracy    <       0.39688474 Ry

     total magnetization       =     8.00 Bohr mag/cell
     absolute magnetization    =     8.35 Bohr mag/cell

     iteration # 76     ecut=    48.00 Ry     beta= 0.50
     Davidson diagonalization with overlap
     c_bands:  1 eigenvalues not converged
     c_bands:  1 eigenvalues not converged
     c_bands:  1 eigenvalues not converged
     ethr =  5.96E-06,  avg # of iterations = 13.0

     negative rho (up, down):  8.822E-03 8.543E-03

     total cpu time spent up to now is      529.5 secs

     total energy              =    -495.75828802 Ry
     estimated scf accuracy    <       1.68259817 Ry

     total magnetization       =     8.00 Bohr mag/cell
     absolute magnetization    =     8.10 Bohr mag/cell

     iteration # 77     ecut=    48.00 Ry     beta= 0.50
     Davidson diagonalization with overlap
     c_bands:  1 eigenvalues not converged
     c_bands:  1 eigenvalues not converged
     ethr =  5.96E-06,  avg # of iterations =  5.3

     negative rho (up, down):  1.702E-02 9.103E-03

     total cpu time spent up to now is      535.2 secs

     total energy              =    -495.85157439 Ry
     estimated scf accuracy    <       2.22199927 Ry

     total magnetization       =     8.00 Bohr mag/cell
     absolute magnetization    =     8.08 Bohr mag/cell

     iteration # 78     ecut=    48.00 Ry     beta= 0.50
     Davidson diagonalization with overlap
     ethr =  5.96E-06,  avg # of iterations =  7.9

     negative rho (up, down):  1.699E-02 9.862E-03

     total cpu time spent up to now is      542.4 secs

     total energy              =    -495.82954977 Ry
     estimated scf accuracy    <       2.53635454 Ry

     total magnetization       =     8.00 Bohr mag/cell
     absolute magnetization    =     8.09 Bohr mag/cell

     iteration # 79     ecut=    48.00 Ry     beta= 0.50
     Davidson diagonalization with overlap
     ethr =  5.96E-06,  avg # of iterations =  3.6

     negative rho (up, down):  1.205E-02 9.886E-03

     total cpu time spent up to now is      547.9 secs

     total energy              =    -495.63683416 Ry
     estimated scf accuracy    <       2.44577017 Ry

     total magnetization       =     8.00 Bohr mag/cell
     absolute magnetization    =     8.09 Bohr mag/cell

     iteration # 80     ecut=    48.00 Ry     beta= 0.50
     Davidson diagonalization with overlap
     c_bands:  1 eigenvalues not converged
     c_bands:  1 eigenvalues not converged
     c_bands:  3 eigenvalues not converged
     c_bands:  3 eigenvalues not converged
     c_bands:  3 eigenvalues not converged
     c_bands:  1 eigenvalues not converged
     c_bands:  2 eigenvalues not converged
     c_bands:  1 eigenvalues not converged
     ethr =  5.96E-06,  avg # of iterations = 18.6

     negative rho (up, down):  1.263E-02 6.618E-03

     total cpu time spent up to now is      559.0 secs

     total energy              =    -495.73045454 Ry
     estimated scf accuracy    <       0.27591876 Ry

     total magnetization       =     8.00 Bohr mag/cell
     absolute magnetization    =     8.87 Bohr mag/cell

     iteration # 81     ecut=    48.00 Ry     beta= 0.50
     Davidson diagonalization with overlap
     ethr =  5.96E-06,  avg # of iterations = 17.4

     negative rho (up, down):  1.251E-02 4.882E-03

     total cpu time spent up to now is      568.5 secs

     total energy              =    -495.76241064 Ry
     estimated scf accuracy    <       0.74984877 Ry

     total magnetization       =     8.00 Bohr mag/cell
     absolute magnetization    =     8.56 Bohr mag/cell

     iteration # 82     ecut=    48.00 Ry     beta= 0.50
     Davidson diagonalization with overlap
     ethr =  5.96E-06,  avg # of iterations =  6.6

     negative rho (up, down):  1.116E-02 4.942E-03

     total cpu time spent up to now is      575.0 secs

     total energy              =    -495.70293422 Ry
     estimated scf accuracy    <       0.92194660 Ry

     total magnetization       =     8.00 Bohr mag/cell
     absolute magnetization    =     8.44 Bohr mag/cell

     iteration # 83     ecut=    48.00 Ry     beta= 0.50
     Davidson diagonalization with overlap
     c_bands:  1 eigenvalues not converged
     c_bands:  2 eigenvalues not converged
     c_bands:  2 eigenvalues not converged
     c_bands:  2 eigenvalues not converged
     c_bands:  1 eigenvalues not converged
     c_bands:  1 eigenvalues not converged
     c_bands:  2 eigenvalues not converged
     c_bands:  1 eigenvalues not converged
     ethr =  5.96E-06,  avg # of iterations = 17.7

     negative rho (up, down):  1.074E-02 4.790E-03

     total cpu time spent up to now is      584.6 secs

     total energy              =    -495.71681709 Ry
     estimated scf accuracy    <       0.46385540 Ry

     total magnetization       =     8.00 Bohr mag/cell
     absolute magnetization    =     8.65 Bohr mag/cell

     iteration # 84     ecut=    48.00 Ry     beta= 0.50
     Davidson diagonalization with overlap
     ethr =  5.96E-06,  avg # of iterations =  5.3

     negative rho (up, down):  9.136E-03 5.018E-03

     total cpu time spent up to now is      590.2 secs

     total energy              =    -495.69389832 Ry
     estimated scf accuracy    <       0.44739478 Ry

     total magnetization       =     8.00 Bohr mag/cell
     absolute magnetization    =     8.66 Bohr mag/cell

     iteration # 85     ecut=    48.00 Ry     beta= 0.50
     Davidson diagonalization with overlap
     c_bands:  1 eigenvalues not converged
     c_bands:  1 eigenvalues not converged
     c_bands:  1 eigenvalues not converged
     c_bands:  2 eigenvalues not converged
     c_bands:  3 eigenvalues not converged
     c_bands:  1 eigenvalues not converged
     c_bands:  2 eigenvalues not converged
     c_bands:  2 eigenvalues not converged
     c_bands:  2 eigenvalues not converged
     ethr =  5.96E-06,  avg # of iterations = 16.7

     negative rho (up, down):  7.698E-03 6.239E-03

     total cpu time spent up to now is      600.3 secs

     total energy              =    -495.68631786 Ry
     estimated scf accuracy    <       0.10444570 Ry

     total magnetization       =     8.00 Bohr mag/cell
     absolute magnetization    =     9.10 Bohr mag/cell

     iteration # 86     ecut=    48.00 Ry     beta= 0.50
     Davidson diagonalization with overlap
     c_bands:  1 eigenvalues not converged
     c_bands:  1 eigenvalues not converged
     c_bands:  1 eigenvalues not converged
     c_bands:  1 eigenvalues not converged
     c_bands:  2 eigenvalues not converged
     c_bands:  5 eigenvalues not converged
     c_bands:  3 eigenvalues not converged
     c_bands:  1 eigenvalues not converged
     c_bands:  3 eigenvalues not converged
     c_bands:  5 eigenvalues not converged
     c_bands:  2 eigenvalues not converged
     c_bands:  2 eigenvalues not converged
     ethr =  5.96E-06,  avg # of iterations = 19.2

     negative rho (up, down):  7.452E-03 5.402E-03

     total cpu time spent up to now is      612.1 secs

     total energy              =    -495.68931020 Ry
     estimated scf accuracy    <       0.45340987 Ry

     total magnetization       =     8.00 Bohr mag/cell
     absolute magnetization    =     8.61 Bohr mag/cell

     iteration # 87     ecut=    48.00 Ry     beta= 0.50
     Davidson diagonalization with overlap
     c_bands:  2 eigenvalues not converged
     c_bands:  5 eigenvalues not converged
     c_bands:  2 eigenvalues not converged
     c_bands:  4 eigenvalues not converged
     c_bands:  1 eigenvalues not converged
     ethr =  5.96E-06,  avg # of iterations = 18.3

     negative rho (up, down):  8.063E-03 5.517E-03

     total cpu time spent up to now is      623.1 secs

     total energy              =    -495.69256687 Ry
     estimated scf accuracy    <       0.16871072 Ry

     total magnetization       =     8.00 Bohr mag/cell
     absolute magnetization    =     8.68 Bohr mag/cell

     iteration # 88     ecut=    48.00 Ry     beta= 0.50
     Davidson diagonalization with overlap
     c_bands:  1 eigenvalues not converged
     c_bands:  1 eigenvalues not converged
     c_bands:  1 eigenvalues not converged
     c_bands:  1 eigenvalues not converged
     c_bands:  1 eigenvalues not converged
     c_bands:  1 eigenvalues not converged
     c_bands:  1 eigenvalues not converged
     c_bands:  1 eigenvalues not converged
     c_bands:  4 eigenvalues not converged
     c_bands:  2 eigenvalues not converged
     c_bands:  2 eigenvalues not converged
     c_bands:  3 eigenvalues not converged
     c_bands:  1 eigenvalues not converged
     ethr =  5.96E-06,  avg # of iterations = 17.1

     negative rho (up, down):  6.208E-03 4.930E-03

     total cpu time spent up to now is      632.4 secs

     total energy              =    -495.68934650 Ry
     estimated scf accuracy    <       0.03033963 Ry

     total magnetization       =     8.00 Bohr mag/cell
     absolute magnetization    =     8.98 Bohr mag/cell

     iteration # 89     ecut=    48.00 Ry     beta= 0.50
     Davidson diagonalization with overlap
     c_bands:  2 eigenvalues not converged
     c_bands:  1 eigenvalues not converged
     c_bands:  1 eigenvalues not converged
     c_bands:  1 eigenvalues not converged
     c_bands:  1 eigenvalues not converged
     c_bands:  1 eigenvalues not converged
     c_bands:  1 eigenvalues not converged
     c_bands:  1 eigenvalues not converged
     c_bands:  4 eigenvalues not converged
     c_bands:  5 eigenvalues not converged
     c_bands:  3 eigenvalues not converged
     c_bands:  1 eigenvalues not converged
     c_bands:  1 eigenvalues not converged
     c_bands:  1 eigenvalues not converged
     c_bands:  4 eigenvalues not converged
     ethr =  5.96E-06,  avg # of iterations = 20.1

     negative rho (up, down):  5.754E-03 4.797E-03

     total cpu time spent up to now is      643.6 secs

     total energy              =    -495.70401460 Ry
     estimated scf accuracy    <       0.28955861 Ry

     total magnetization       =     8.00 Bohr mag/cell
     absolute magnetization    =     8.71 Bohr mag/cell

     iteration # 90     ecut=    48.00 Ry     beta= 0.50
     Davidson diagonalization with overlap
     c_bands:  1 eigenvalues not converged
     ethr =  5.96E-06,  avg # of iterations = 10.8

     negative rho (up, down):  6.115E-03 4.705E-03

     total cpu time spent up to now is      651.2 secs

     total energy              =    -495.70014049 Ry
     estimated scf accuracy    <       0.25739651 Ry

     total magnetization       =     8.00 Bohr mag/cell
     absolute magnetization    =     8.66 Bohr mag/cell

     iteration # 91     ecut=    48.00 Ry     beta= 0.50
     Davidson diagonalization with overlap
     c_bands:  2 eigenvalues not converged
     c_bands:  2 eigenvalues not converged
     c_bands:  1 eigenvalues not converged
     c_bands:  1 eigenvalues not converged
     c_bands:  2 eigenvalues not converged
     c_bands:  1 eigenvalues not converged
     c_bands:  1 eigenvalues not converged
     c_bands:  4 eigenvalues not converged
     ethr =  5.96E-06,  avg # of iterations = 18.1

     negative rho (up, down):  7.682E-03 4.675E-03

     total cpu time spent up to now is      660.8 secs

     total energy              =    -495.70683117 Ry
     estimated scf accuracy    <       0.14020676 Ry

     total magnetization       =     8.00 Bohr mag/cell
     absolute magnetization    =     8.59 Bohr mag/cell

     iteration # 92     ecut=    48.00 Ry     beta= 0.50
     Davidson diagonalization with overlap
     ethr =  5.96E-06,  avg # of iterations =  8.9

     negative rho (up, down):  1.090E-02 4.742E-03

     total cpu time spent up to now is      667.3 secs

     total energy              =    -495.70771416 Ry
     estimated scf accuracy    <       0.23201441 Ry

     total magnetization       =     8.00 Bohr mag/cell
     absolute magnetization    =     8.60 Bohr mag/cell

     iteration # 93     ecut=    48.00 Ry     beta= 0.50
     Davidson diagonalization with overlap
     ethr =  5.96E-06,  avg # of iterations =  1.5

     negative rho (up, down):  1.110E-02 4.842E-03

     total cpu time spent up to now is      672.2 secs

     total energy              =    -495.70594523 Ry
     estimated scf accuracy    <       0.23078344 Ry

     total magnetization       =     8.00 Bohr mag/cell
     absolute magnetization    =     8.61 Bohr mag/cell

     iteration # 94     ecut=    48.00 Ry     beta= 0.50
     Davidson diagonalization with overlap
     c_bands:  1 eigenvalues not converged
     c_bands:  1 eigenvalues not converged
     c_bands:  1 eigenvalues not converged
     c_bands:  1 eigenvalues not converged
     c_bands:  1 eigenvalues not converged
     c_bands:  2 eigenvalues not converged
     c_bands:  1 eigenvalues not converged
     c_bands:  1 eigenvalues not converged
     c_bands:  2 eigenvalues not converged
     c_bands:  1 eigenvalues not converged
     c_bands:  3 eigenvalues not converged
     ethr =  5.96E-06,  avg # of iterations = 17.8

     negative rho (up, down):  9.029E-03 4.800E-03

     total cpu time spent up to now is      682.8 secs

     total energy              =    -495.70973203 Ry
     estimated scf accuracy    <       0.25006698 Ry

     total magnetization       =     8.00 Bohr mag/cell
     absolute magnetization    =     8.66 Bohr mag/cell

     iteration # 95     ecut=    48.00 Ry     beta= 0.50
     Davidson diagonalization with overlap
     c_bands:  1 eigenvalues not converged
     c_bands:  1 eigenvalues not converged
     c_bands:  4 eigenvalues not converged
     c_bands:  1 eigenvalues not converged
     c_bands:  2 eigenvalues not converged
     ethr =  5.96E-06,  avg # of iterations = 16.6

     negative rho (up, down):  8.500E-03 4.727E-03

     total cpu time spent up to now is      691.8 secs

     total energy              =    -495.70285455 Ry
     estimated scf accuracy    <       0.23107219 Ry

     total magnetization       =     8.00 Bohr mag/cell
     absolute magnetization    =     8.69 Bohr mag/cell

     iteration # 96     ecut=    48.00 Ry     beta= 0.50
     Davidson diagonalization with overlap
     c_bands:  1 eigenvalues not converged
     ethr =  5.96E-06,  avg # of iterations =  8.8

     negative rho (up, down):  9.666E-03 4.749E-03

     total cpu time spent up to now is      698.8 secs

     total energy              =    -495.70738398 Ry
     estimated scf accuracy    <       0.18182830 Ry

     total magnetization       =     8.00 Bohr mag/cell
     absolute magnetization    =     8.69 Bohr mag/cell

     iteration # 97     ecut=    48.00 Ry     beta= 0.50
     Davidson diagonalization with overlap
     ethr =  5.96E-06,  avg # of iterations =  4.6

     negative rho (up, down):  1.371E-02 4.789E-03

     total cpu time spent up to now is      704.5 secs

     total energy              =    -495.71363615 Ry
     estimated scf accuracy    <       0.20060017 Ry

     total magnetization       =     8.00 Bohr mag/cell
     absolute magnetization    =     8.69 Bohr mag/cell

     iteration # 98     ecut=    48.00 Ry     beta= 0.50
     Davidson diagonalization with overlap
     c_bands:  1 eigenvalues not converged
     c_bands:  1 eigenvalues not converged
     c_bands:  1 eigenvalues not converged
     c_bands:  1 eigenvalues not converged
     c_bands:  1 eigenvalues not converged
     c_bands:  1 eigenvalues not converged
     c_bands:  1 eigenvalues not converged
     ethr =  5.96E-06,  avg # of iterations = 13.4

     negative rho (up, down):  1.153E-02 4.873E-03

     total cpu time spent up to now is      712.1 secs

     total energy              =    -495.70630456 Ry
     estimated scf accuracy    <       0.28598091 Ry

     total magnetization       =     8.00 Bohr mag/cell
     absolute magnetization    =     8.66 Bohr mag/cell

     iteration # 99     ecut=    48.00 Ry     beta= 0.50
     Davidson diagonalization with overlap
     ethr =  5.96E-06,  avg # of iterations =  6.6

     negative rho (up, down):  2.350E-02 6.825E-03

     total cpu time spent up to now is      718.5 secs

     total energy              =    -495.63343502 Ry
     estimated scf accuracy    <       0.22634671 Ry

     total magnetization       =     8.00 Bohr mag/cell
     absolute magnetization    =     8.68 Bohr mag/cell

     iteration #100     ecut=    48.00 Ry     beta= 0.50
     Davidson diagonalization with overlap
     c_bands:  1 eigenvalues not converged
     c_bands:  2 eigenvalues not converged
     c_bands:  1 eigenvalues not converged
     c_bands:  2 eigenvalues not converged
     c_bands:  2 eigenvalues not converged
     c_bands:  1 eigenvalues not converged
     c_bands:  1 eigenvalues not converged
     c_bands:  2 eigenvalues not converged
     ethr =  5.96E-06,  avg # of iterations = 23.9

     negative rho (up, down):  1.548E-02 6.726E-03

     total cpu time spent up to now is      734.3 secs

     total energy              =    -495.72374684 Ry
     estimated scf accuracy    <       1.66322622 Ry

     total magnetization       =     8.00 Bohr mag/cell
     absolute magnetization    =     8.20 Bohr mag/cell

     iteration #101     ecut=    48.00 Ry     beta= 0.50
     Davidson diagonalization with overlap
     ethr =  5.96E-06,  avg # of iterations = 12.2

     negative rho (up, down):  1.747E-02 6.516E-03

     total cpu time spent up to now is      742.5 secs

     total energy              =    -495.73660130 Ry
     estimated scf accuracy    <       0.75402135 Ry

     total magnetization       =     8.00 Bohr mag/cell
     absolute magnetization    =     8.53 Bohr mag/cell

     iteration #102     ecut=    48.00 Ry     beta= 0.50
     Davidson diagonalization with overlap
     ethr =  5.96E-06,  avg # of iterations =  1.5

     negative rho (up, down):  1.936E-02 6.998E-03

     total cpu time spent up to now is      747.4 secs

     total energy              =    -495.74185532 Ry
     estimated scf accuracy    <       0.74839309 Ry

     total magnetization       =     8.00 Bohr mag/cell
     absolute magnetization    =     8.53 Bohr mag/cell

     iteration #103     ecut=    48.00 Ry     beta= 0.50
     Davidson diagonalization with overlap
     ethr =  5.96E-06,  avg # of iterations =  1.0

     negative rho (up, down):  1.760E-02 7.294E-03

     total cpu time spent up to now is      752.2 secs

     total energy              =    -495.71442620 Ry
     estimated scf accuracy    <       0.77137129 Ry

     total magnetization       =     8.00 Bohr mag/cell
     absolute magnetization    =     8.52 Bohr mag/cell

     iteration #104     ecut=    48.00 Ry     beta= 0.50
     Davidson diagonalization with overlap
     ethr =  5.96E-06,  avg # of iterations =  6.9

     negative rho (up, down):  1.843E-02 6.909E-03

     total cpu time spent up to now is      759.0 secs

     total energy              =    -495.71258569 Ry
     estimated scf accuracy    <       0.60586554 Ry

     total magnetization       =     8.00 Bohr mag/cell
     absolute magnetization    =     8.58 Bohr mag/cell

     iteration #105     ecut=    48.00 Ry     beta= 0.50
     Davidson diagonalization with overlap
     ethr =  5.96E-06,  avg # of iterations =  1.8

     negative rho (up, down):  1.841E-02 6.099E-03

     total cpu time spent up to now is      764.0 secs

     total energy              =    -495.72688664 Ry
     estimated scf accuracy    <       0.59793969 Ry

     total magnetization       =     8.00 Bohr mag/cell
     absolute magnetization    =     8.57 Bohr mag/cell

     iteration #106     ecut=    48.00 Ry     beta= 0.50
     Davidson diagonalization with overlap
     ethr =  5.96E-06,  avg # of iterations =  4.0

     negative rho (up, down):  1.923E-02 5.418E-03

     total cpu time spent up to now is      769.7 secs

     total energy              =    -495.76183257 Ry
     estimated scf accuracy    <       0.62180380 Ry

     total magnetization       =     8.00 Bohr mag/cell
     absolute magnetization    =     8.60 Bohr mag/cell

     iteration #107     ecut=    48.00 Ry     beta= 0.50
     Davidson diagonalization with overlap
     ethr =  5.96E-06,  avg # of iterations =  8.9

     negative rho (up, down):  1.133E-02 6.717E-03

     total cpu time spent up to now is      776.9 secs

     total energy              =    -495.70431330 Ry
     estimated scf accuracy    <       0.83523982 Ry

     total magnetization       =     8.00 Bohr mag/cell
     absolute magnetization    =     8.57 Bohr mag/cell

     iteration #108     ecut=    48.00 Ry     beta= 0.50
     Davidson diagonalization with overlap
     c_bands:  3 eigenvalues not converged
     c_bands:  3 eigenvalues not converged
     c_bands:  3 eigenvalues not converged
     c_bands:  1 eigenvalues not converged
     c_bands:  1 eigenvalues not converged
     c_bands:  1 eigenvalues not converged
     c_bands:  3 eigenvalues not converged
     ethr =  5.96E-06,  avg # of iterations = 14.3

     negative rho (up, down):  2.316E-02 6.961E-02

     total cpu time spent up to now is      786.7 secs

     total energy              =    -495.53083620 Ry
     estimated scf accuracy    <       0.45098446 Ry

     total magnetization       =     8.00 Bohr mag/cell
     absolute magnetization    =     8.70 Bohr mag/cell

     iteration #109     ecut=    48.00 Ry     beta= 0.50
     Davidson diagonalization with overlap
     c_bands:  2 eigenvalues not converged
     c_bands:  1 eigenvalues not converged
     c_bands:  1 eigenvalues not converged
     c_bands:  3 eigenvalues not converged
     c_bands:  3 eigenvalues not converged
     c_bands:  1 eigenvalues not converged
     c_bands:  2 eigenvalues not converged
     c_bands:  1 eigenvalues not converged
     c_bands:  1 eigenvalues not converged
     c_bands:  1 eigenvalues not converged
     c_bands:  3 eigenvalues not converged
     ethr =  5.96E-06,  avg # of iterations = 20.4

     negative rho (up, down):  7.393E-03 7.411E-03

     total cpu time spent up to now is      800.4 secs

     total energy              =    -495.61091981 Ry
     estimated scf accuracy    <       3.74187321 Ry

     total magnetization       =     8.00 Bohr mag/cell
     absolute magnetization    =     8.04 Bohr mag/cell

     iteration #110     ecut=    48.00 Ry     beta= 0.50
     Davidson diagonalization with overlap
     c_bands:  1 eigenvalues not converged
     c_bands:  1 eigenvalues not converged
     c_bands:  1 eigenvalues not converged
     c_bands:  2 eigenvalues not converged
     c_bands:  2 eigenvalues not converged
     c_bands:  1 eigenvalues not converged
     c_bands:  2 eigenvalues not converged
     c_bands:  1 eigenvalues not converged
     c_bands:  2 eigenvalues not converged
     c_bands:  1 eigenvalues not converged
     c_bands:  3 eigenvalues not converged
     c_bands:  1 eigenvalues not converged
     ethr =  5.96E-06,  avg # of iterations = 19.9

     negative rho (up, down):  7.570E-03 5.540E-03

     total cpu time spent up to now is      812.2 secs

     total energy              =    -495.70460557 Ry
     estimated scf accuracy    <       0.52157183 Ry

     total magnetization       =     8.00 Bohr mag/cell
     absolute magnetization    =     8.66 Bohr mag/cell

     iteration #111     ecut=    48.00 Ry     beta= 0.50
     Davidson diagonalization with overlap
     c_bands:  1 eigenvalues not converged
     c_bands:  1 eigenvalues not converged
     c_bands:  1 eigenvalues not converged
     c_bands:  1 eigenvalues not converged
     c_bands:  1 eigenvalues not converged
     ethr =  5.96E-06,  avg # of iterations = 11.8

     negative rho (up, down):  8.499E-03 5.531E-03

     total cpu time spent up to now is      819.7 secs

     total energy              =    -495.67473801 Ry
     estimated scf accuracy    <       0.43877032 Ry

     total magnetization       =     8.00 Bohr mag/cell
     absolute magnetization    =     8.67 Bohr mag/cell

     iteration #112     ecut=    48.00 Ry     beta= 0.50
     Davidson diagonalization with overlap
     c_bands:  1 eigenvalues not converged
     c_bands:  2 eigenvalues not converged
     c_bands:  5 eigenvalues not converged
     c_bands:  4 eigenvalues not converged
     c_bands:  4 eigenvalues not converged
     c_bands:  5 eigenvalues not converged
     c_bands:  1 eigenvalues not converged
     c_bands:  2 eigenvalues not converged
     c_bands:  1 eigenvalues not converged
     c_bands:  2 eigenvalues not converged
     c_bands:  5 eigenvalues not converged
     ethr =  5.96E-06,  avg # of iterations = 20.9

     negative rho (up, down):  7.410E-03 4.923E-03

     total cpu time spent up to now is      831.9 secs

     total energy              =    -495.68641902 Ry
     estimated scf accuracy    <       0.25997556 Ry

     total magnetization       =     8.00 Bohr mag/cell
     absolute magnetization    =     8.76 Bohr mag/cell

     iteration #113     ecut=    48.00 Ry     beta= 0.50
     Davidson diagonalization with overlap
     c_bands:  3 eigenvalues not converged
     c_bands:  2 eigenvalues not converged
     c_bands:  2 eigenvalues not converged
     c_bands:  1 eigenvalues not converged
     c_bands:  1 eigenvalues not converged
     c_bands:  1 eigenvalues not converged
     c_bands:  1 eigenvalues not converged
     c_bands:  1 eigenvalues not converged
     c_bands:  1 eigenvalues not converged
     ethr =  5.96E-06,  avg # of iterations = 18.8

     negative rho (up, down):  6.302E-03 4.791E-03

     total cpu time spent up to now is      842.2 secs

     total energy              =    -495.70202065 Ry
     estimated scf accuracy    <       0.27192239 Ry

     total magnetization       =     8.00 Bohr mag/cell
     absolute magnetization    =     8.77 Bohr mag/cell

     iteration #114     ecut=    48.00 Ry     beta= 0.50
     Davidson diagonalization with overlap
     c_bands:  2 eigenvalues not converged
     c_bands:  1 eigenvalues not converged
     c_bands:  1 eigenvalues not converged
     c_bands:  1 eigenvalues not converged
     c_bands:  1 eigenvalues not converged
     ethr =  5.96E-06,  avg # of iterations = 11.9

     negative rho (up, down):  6.879E-03 4.891E-03

     total cpu time spent up to now is      849.7 secs

     total energy              =    -495.68802726 Ry
     estimated scf accuracy    <       0.29491994 Ry

     total magnetization       =     8.00 Bohr mag/cell
     absolute magnetization    =     8.76 Bohr mag/cell

     iteration #115     ecut=    48.00 Ry     beta= 0.50
     Davidson diagonalization with overlap
     c_bands:  3 eigenvalues not converged
     c_bands:  4 eigenvalues not converged
     c_bands:  2 eigenvalues not converged
     c_bands:  3 eigenvalues not converged
     c_bands:  3 eigenvalues not converged
     c_bands:  3 eigenvalues not converged
     c_bands:  1 eigenvalues not converged
     c_bands:  1 eigenvalues not converged
     c_bands:  2 eigenvalues not converged
     c_bands:  2 eigenvalues not converged
     c_bands:  1 eigenvalues not converged
     c_bands:  1 eigenvalues not converged
     c_bands:  3 eigenvalues not converged
     c_bands:  1 eigenvalues not converged
     c_bands:  3 eigenvalues not converged
     ethr =  5.96E-06,  avg # of iterations = 18.9

     negative rho (up, down):  1.000E-02 4.944E-03

     total cpu time spent up to now is      860.0 secs

     total energy              =    -495.70101363 Ry
     estimated scf accuracy    <       0.10557064 Ry

     total magnetization       =     8.00 Bohr mag/cell
     absolute magnetization    =     9.00 Bohr mag/cell

     iteration #116     ecut=    48.00 Ry     beta= 0.50
     Davidson diagonalization with overlap
     c_bands:  2 eigenvalues not converged
     c_bands:  2 eigenvalues not converged
     c_bands:  2 eigenvalues not converged
     c_bands:  2 eigenvalues not converged
     c_bands:  2 eigenvalues not converged
     c_bands:  2 eigenvalues not converged
     c_bands:  2 eigenvalues not converged
     c_bands:  1 eigenvalues not converged
     c_bands:  1 eigenvalues not converged
     c_bands:  2 eigenvalues not converged
     c_bands:  2 eigenvalues not converged
     ethr =  5.96E-06,  avg # of iterations = 18.7

     negative rho (up, down):  1.294E-02 4.771E-03

     total cpu time spent up to now is      869.2 secs

     total energy              =    -495.70044826 Ry
     estimated scf accuracy    <       0.32928039 Ry

     total magnetization       =     8.00 Bohr mag/cell
     absolute magnetization    =     8.77 Bohr mag/cell

     iteration #117     ecut=    48.00 Ry     beta= 0.50
     Davidson diagonalization with overlap
     ethr =  5.96E-06,  avg # of iterations =  8.1

     negative rho (up, down):  2.545E-02 4.829E-03

     total cpu time spent up to now is      875.3 secs

     total energy              =    -495.70077581 Ry
     estimated scf accuracy    <       0.26914524 Ry

     total magnetization       =     8.00 Bohr mag/cell
     absolute magnetization    =     8.81 Bohr mag/cell

     iteration #118     ecut=    48.00 Ry     beta= 0.50
     Davidson diagonalization with overlap
     c_bands:  1 eigenvalues not converged
     c_bands:  3 eigenvalues not converged
     c_bands:  3 eigenvalues not converged
     c_bands:  3 eigenvalues not converged
     c_bands:  4 eigenvalues not converged
     c_bands:  1 eigenvalues not converged
     c_bands:  1 eigenvalues not converged
     c_bands:  4 eigenvalues not converged
     c_bands:  1 eigenvalues not converged
     c_bands:  1 eigenvalues not converged
     ethr =  5.96E-06,  avg # of iterations = 18.8

     negative rho (up, down):  2.316E-02 4.752E-03

     total cpu time spent up to now is      886.0 secs

     total energy              =    -495.70272032 Ry
     estimated scf accuracy    <       0.44098065 Ry

     total magnetization       =     8.00 Bohr mag/cell
     absolute magnetization    =     8.67 Bohr mag/cell

     iteration #119     ecut=    48.00 Ry     beta= 0.50
     Davidson diagonalization with overlap
     c_bands:  1 eigenvalues not converged
     c_bands:  2 eigenvalues not converged
     c_bands:  2 eigenvalues not converged
     c_bands:  4 eigenvalues not converged
     c_bands:  1 eigenvalues not converged
     c_bands:  2 eigenvalues not converged
     ethr =  5.96E-06,  avg # of iterations = 15.2

     negative rho (up, down):  1.692E-02 4.769E-03

     total cpu time spent up to now is      894.3 secs

     total energy              =    -495.69893112 Ry
     estimated scf accuracy    <       0.44185720 Ry

     total magnetization       =     8.00 Bohr mag/cell
     absolute magnetization    =     8.63 Bohr mag/cell

     iteration #120     ecut=    48.00 Ry     beta= 0.50
     Davidson diagonalization with overlap
     c_bands:  2 eigenvalues not converged
     c_bands:  1 eigenvalues not converged
     c_bands:  2 eigenvalues not converged
     c_bands:  1 eigenvalues not converged
     c_bands:  1 eigenvalues not converged
[...]
     Davidson diagonalization with overlap
     c_bands:  1 eigenvalues not converged
     ethr =  3.07E-06,  avg # of iterations =  4.5

     negative rho (up, down):  8.433E-03 5.143E-03

     total cpu time spent up to now is     2095.9 secs

     total energy              =    -495.69693143 Ry
     estimated scf accuracy    <       0.00665278 Ry

     total magnetization       =     8.00 Bohr mag/cell
     absolute magnetization    =     8.78 Bohr mag/cell

     iteration #282     ecut=    48.00 Ry     beta= 0.50
     Davidson diagonalization with overlap
     ethr =  3.07E-06,  avg # of iterations =  7.8

     negative rho (up, down):  5.256E-03 5.493E-03

     total cpu time spent up to now is     2103.0 secs

     total energy              =    -495.69966244 Ry
     estimated scf accuracy    <       0.01800844 Ry

     total magnetization       =     8.00 Bohr mag/cell
     absolute magnetization    =     8.65 Bohr mag/cell

     iteration #283     ecut=    48.00 Ry     beta= 0.50
     Davidson diagonalization with overlap
     ethr =  3.07E-06,  avg # of iterations =  7.9

     negative rho (up, down):  4.737E-03 6.298E-03

     total cpu time spent up to now is     2109.9 secs

     total energy              =    -495.70110261 Ry
     estimated scf accuracy    <       0.01002867 Ry

     total magnetization       =     8.00 Bohr mag/cell
     absolute magnetization    =     8.75 Bohr mag/cell

     iteration #284     ecut=    48.00 Ry     beta= 0.50
     Davidson diagonalization with overlap
     ethr =  3.07E-06,  avg # of iterations =  9.4

     negative rho (up, down):  4.653E-03 6.601E-03

     total cpu time spent up to now is     2117.2 secs

     total energy              =    -495.70158701 Ry
     estimated scf accuracy    <       0.01277899 Ry

     total magnetization       =     8.00 Bohr mag/cell
     absolute magnetization    =     8.83 Bohr mag/cell

     iteration #285     ecut=    48.00 Ry     beta= 0.50
     Davidson diagonalization with overlap
     ethr =  3.07E-06,  avg # of iterations =  5.6

     negative rho (up, down):  4.718E-03 5.881E-03

     total cpu time spent up to now is     2123.5 secs

     total energy              =    -495.70188088 Ry
     estimated scf accuracy    <       0.00524881 Ry

     total magnetization       =     8.00 Bohr mag/cell
     absolute magnetization    =     8.86 Bohr mag/cell

     iteration #286     ecut=    48.00 Ry     beta= 0.50
     Davidson diagonalization with overlap
     ethr =  3.07E-06,  avg # of iterations =  3.8

     negative rho (up, down):  4.623E-03 7.638E-03

     total cpu time spent up to now is     2128.9 secs

     total energy              =    -495.70504613 Ry
     estimated scf accuracy    <       0.00307651 Ry

     total magnetization       =     8.00 Bohr mag/cell
     absolute magnetization    =     8.85 Bohr mag/cell

     iteration #287     ecut=    48.00 Ry     beta= 0.50
     Davidson diagonalization with overlap
     ethr =  3.07E-06,  avg # of iterations =  4.3

     negative rho (up, down):  4.614E-03 8.410E-03

     total cpu time spent up to now is     2134.7 secs

     total energy              =    -495.70640217 Ry
     estimated scf accuracy    <       0.00404874 Ry

     total magnetization       =     8.00 Bohr mag/cell
     absolute magnetization    =     8.88 Bohr mag/cell

     iteration #288     ecut=    48.00 Ry     beta= 0.50
     Davidson diagonalization with overlap
     ethr =  3.07E-06,  avg # of iterations =  1.0

     negative rho (up, down):  4.867E-03 1.493E-02

     total cpu time spent up to now is     2139.5 secs

     total energy              =    -495.70995610 Ry
     estimated scf accuracy    <       0.00443627 Ry

     total magnetization       =     8.00 Bohr mag/cell
     absolute magnetization    =     8.88 Bohr mag/cell

     iteration #289     ecut=    48.00 Ry     beta= 0.50
     Davidson diagonalization with overlap
     ethr =  3.07E-06,  avg # of iterations =  6.1

     negative rho (up, down):  4.687E-03 6.865E-03

     total cpu time spent up to now is     2145.6 secs

     total energy              =    -495.70385391 Ry
     estimated scf accuracy    <       0.00684257 Ry

     total magnetization       =     8.00 Bohr mag/cell
     absolute magnetization    =     8.90 Bohr mag/cell

     iteration #290     ecut=    48.00 Ry     beta= 0.50
     Davidson diagonalization with overlap
     ethr =  3.07E-06,  avg # of iterations =  6.7

     negative rho (up, down):  4.719E-03 1.454E-02

     total cpu time spent up to now is     2151.8 secs

     total energy              =    -495.71005242 Ry
     estimated scf accuracy    <       0.00575081 Ry

     total magnetization       =     8.00 Bohr mag/cell
     absolute magnetization    =     8.88 Bohr mag/cell

     iteration #291     ecut=    48.00 Ry     beta= 0.50
     Davidson diagonalization with overlap
     ethr =  3.07E-06,  avg # of iterations =  6.3

     negative rho (up, down):  5.556E-03 5.528E-03

     total cpu time spent up to now is     2158.1 secs

     total energy              =    -495.69967268 Ry
     estimated scf accuracy    <       0.00896366 Ry

     total magnetization       =     8.00 Bohr mag/cell
     absolute magnetization    =     8.90 Bohr mag/cell

     iteration #292     ecut=    48.00 Ry     beta= 0.50
     Davidson diagonalization with overlap
     ethr =  3.07E-06,  avg # of iterations = 10.9

     negative rho (up, down):  4.638E-03 5.524E-03

     total cpu time spent up to now is     2166.1 secs

     total energy              =    -495.70203591 Ry
     estimated scf accuracy    <       0.00068511 Ry

     total magnetization       =     8.00 Bohr mag/cell
     absolute magnetization    =     8.83 Bohr mag/cell

     iteration #293     ecut=    48.00 Ry     beta= 0.50
     Davidson diagonalization with overlap
     ethr =  2.45E-06,  avg # of iterations =  6.6

     negative rho (up, down):  4.639E-03 5.510E-03

     total cpu time spent up to now is     2172.3 secs

     total energy              =    -495.70233599 Ry
     estimated scf accuracy    <       0.00205545 Ry

     total magnetization       =     8.00 Bohr mag/cell
     absolute magnetization    =     8.84 Bohr mag/cell

     iteration #294     ecut=    48.00 Ry     beta= 0.50
     Davidson diagonalization with overlap
     ethr =  2.45E-06,  avg # of iterations =  1.0

     negative rho (up, down):  4.660E-03 5.497E-03

     total cpu time spent up to now is     2177.1 secs

     total energy              =    -495.70219642 Ry
     estimated scf accuracy    <       0.00184125 Ry

     total magnetization       =     8.00 Bohr mag/cell
     absolute magnetization    =     8.83 Bohr mag/cell

     iteration #295     ecut=    48.00 Ry     beta= 0.50
     Davidson diagonalization with overlap
     ethr =  2.45E-06,  avg # of iterations =  3.9

     negative rho (up, down):  4.659E-03 5.491E-03

     total cpu time spent up to now is     2182.4 secs

     total energy              =    -495.70230430 Ry
     estimated scf accuracy    <       0.00013288 Ry

     total magnetization       =     8.00 Bohr mag/cell
     absolute magnetization    =     8.84 Bohr mag/cell

     iteration #296     ecut=    48.00 Ry     beta= 0.50
     Davidson diagonalization with overlap
     ethr =  4.75E-07,  avg # of iterations =  2.6

     negative rho (up, down):  4.627E-03 5.435E-03

     total cpu time spent up to now is     2187.5 secs

     total energy              =    -495.70232626 Ry
     estimated scf accuracy    <       0.00031199 Ry

     total magnetization       =     8.00 Bohr mag/cell
     absolute magnetization    =     8.84 Bohr mag/cell

     iteration #297     ecut=    48.00 Ry     beta= 0.50
     Davidson diagonalization with overlap
     ethr =  4.75E-07,  avg # of iterations =  2.0

     negative rho (up, down):  4.629E-03 5.403E-03

     total cpu time spent up to now is     2192.5 secs

     total energy              =    -495.70233462 Ry
     estimated scf accuracy    <       0.00017218 Ry

     total magnetization       =     8.00 Bohr mag/cell
     absolute magnetization    =     8.84 Bohr mag/cell

     iteration #298     ecut=    48.00 Ry     beta= 0.50
     Davidson diagonalization with overlap
     ethr =  4.75E-07,  avg # of iterations =  4.2

     negative rho (up, down):  4.610E-03 5.374E-03

     total cpu time spent up to now is     2198.0 secs

     total energy              =    -495.70233897 Ry
     estimated scf accuracy    <       0.00008322 Ry

     total magnetization       =     8.00 Bohr mag/cell
     absolute magnetization    =     8.83 Bohr mag/cell

     iteration #299     ecut=    48.00 Ry     beta= 0.50
     Davidson diagonalization with overlap
     ethr =  2.97E-07,  avg # of iterations =  5.8

     negative rho (up, down):  4.604E-03 5.385E-03

     total cpu time spent up to now is     2203.9 secs

     total energy              =    -495.70237406 Ry
     estimated scf accuracy    <       0.00010500 Ry

     total magnetization       =     8.00 Bohr mag/cell
     absolute magnetization    =     8.83 Bohr mag/cell

     iteration #300     ecut=    48.00 Ry     beta= 0.50
     Davidson diagonalization with overlap
     ethr =  2.97E-07,  avg # of iterations =  2.8

     negative rho (up, down):  4.605E-03 5.376E-03

     total cpu time spent up to now is     2209.1 secs

     total energy              =    -495.70238269 Ry
     estimated scf accuracy    <       0.00002309 Ry

     total magnetization       =     8.00 Bohr mag/cell
     absolute magnetization    =     8.83 Bohr mag/cell

     iteration #301     ecut=    48.00 Ry     beta= 0.50
     Davidson diagonalization with overlap
     ethr =  8.25E-08,  avg # of iterations =  4.6

     negative rho (up, down):  4.607E-03 5.365E-03

     total cpu time spent up to now is     2214.8 secs

     total energy              =    -495.70239626 Ry
     estimated scf accuracy    <       0.00000282 Ry

     total magnetization       =     8.00 Bohr mag/cell
     absolute magnetization    =     8.83 Bohr mag/cell

     iteration #302     ecut=    48.00 Ry     beta= 0.50
     Davidson diagonalization with overlap
     ethr =  1.01E-08,  avg # of iterations =  7.4

     negative rho (up, down):  4.606E-03 5.369E-03

     total cpu time spent up to now is     2221.5 secs

     total energy              =    -495.70240376 Ry
     estimated scf accuracy    <       0.00005133 Ry

     total magnetization       =     8.00 Bohr mag/cell
     absolute magnetization    =     8.83 Bohr mag/cell

     iteration #303     ecut=    48.00 Ry     beta= 0.50
     Davidson diagonalization with overlap
     ethr =  1.01E-08,  avg # of iterations =  7.6

     negative rho (up, down):  4.605E-03 5.374E-03

     total cpu time spent up to now is     2227.8 secs

     total energy              =    -495.70240560 Ry
     estimated scf accuracy    <       0.00000320 Ry

     total magnetization       =     8.00 Bohr mag/cell
     absolute magnetization    =     8.83 Bohr mag/cell

     iteration #304     ecut=    48.00 Ry     beta= 0.50
     Davidson diagonalization with overlap
     ethr =  1.01E-08,  avg # of iterations =  4.7

     negative rho (up, down):  4.605E-03 5.374E-03

     total cpu time spent up to now is     2233.6 secs

     total energy              =    -495.70240663 Ry
     estimated scf accuracy    <       0.00000111 Ry

     total magnetization       =     8.00 Bohr mag/cell
     absolute magnetization    =     8.83 Bohr mag/cell

     iteration #305     ecut=    48.00 Ry     beta= 0.50
     Davidson diagonalization with overlap
     ethr =  3.95E-09,  avg # of iterations =  5.8

     negative rho (up, down):  4.604E-03 5.374E-03

     total cpu time spent up to now is     2239.7 secs

     total energy              =    -495.70240999 Ry
     estimated scf accuracy    <       0.00000011 Ry

     total magnetization       =     8.00 Bohr mag/cell
     absolute magnetization    =     8.83 Bohr mag/cell

     iteration #306     ecut=    48.00 Ry     beta= 0.50
     Davidson diagonalization with overlap
     ethr =  3.82E-10,  avg # of iterations =  6.7

     negative rho (up, down):  4.604E-03 5.375E-03
 
     Magnetic moment per site:
     atom:    1    charge:   13.2988    magn:    5.0756    constr:    0.0000
     atom:    2    charge:   13.2818    magn:    2.5767    constr:    0.0000

     total cpu time spent up to now is     2246.1 secs

     End of self-consistent calculation

 ------ SPIN UP ------------


          k = 0.1667 0.2887 0.0000 ( 59267 PWs)   bands (ev):

   -75.0914 -75.0677 -47.0395 -46.5787 -46.4916 -46.4869 -46.3208 -46.1244
    -4.5342  -4.0630  -4.0604  -4.0417  -3.9302  -3.8813  -3.8776  -3.8745
    -3.8377  -3.8369

          k = 0.1667-0.4811 0.0000 ( 59291 PWs)   bands (ev):

   -75.0914 -75.0677 -47.0395 -46.5787 -46.4916 -46.4869 -46.3208 -46.1244
    -4.5296  -4.0628  -4.0604  -4.0418  -3.9316  -3.8813  -3.8775  -3.8745
    -3.8378  -3.8367

          k = 0.1667-0.0962 0.0000 ( 59226 PWs)   bands (ev):

   -75.0914 -75.0677 -47.0395 -46.5787 -46.4916 -46.4869 -46.3208 -46.1243
    -4.5388  -4.0632  -4.0604  -4.0416  -3.9289  -3.8813  -3.8777  -3.8746
    -3.8377  -3.8371

          k =-0.5000-0.8660 0.0000 ( 59292 PWs)   bands (ev):

   -75.0914 -75.0677 -47.0395 -46.5788 -46.4915 -46.4869 -46.3208 -46.1244
    -4.4675  -4.0596  -4.0566  -4.0416  -3.9599  -3.8866  -3.8825  -3.8713
    -3.8378  -3.8374

          k = 0.3333 0.0000 0.0000 ( 59267 PWs)   bands (ev):

   -75.0914 -75.0677 -47.0395 -46.5787 -46.4916 -46.4869 -46.3208 -46.1243
    -4.4955  -4.0609  -4.0579  -4.0416  -3.9462  -3.8848  -3.8809  -3.8725
    -3.8377  -3.8374

          k = 0.5000-0.0962 0.0000 ( 59291 PWs)   bands (ev):

   -75.0914 -75.0677 -47.0395 -46.5787 -46.4916 -46.4869 -46.3208 -46.1244
    -4.4675  -4.0596  -4.0567  -4.0416  -3.9599  -3.8866  -3.8825  -3.8713
    -3.8378  -3.8374

          k =-0.3333-0.3849 0.0000 ( 59291 PWs)   bands (ev):

   -75.0914 -75.0677 -47.0395 -46.5787 -46.4916 -46.4869 -46.3207 -46.1244
    -4.4901  -4.0606  -4.0579  -4.0417  -3.9483  -3.8848  -3.8808  -3.8724
    -3.8378  -3.8371

          k =-0.0000-0.1925 0.0000 ( 59226 PWs)   bands (ev):

   -75.0914 -75.0677 -47.0395 -46.5787 -46.4916 -46.4869 -46.3207 -46.1244
    -4.5558  -4.0642  -4.0616  -4.0417  -3.9231  -3.8795  -3.8761  -3.8755
    -3.8377  -3.8369

          k =-1.0000 0.0000 0.0000 ( 59292 PWs)   bands (ev):

   -75.0914 -75.0677 -47.0395 -46.5788 -46.4915 -46.4869 -46.3208 -46.1244
    -4.5471  -4.0638  -4.0616  -4.0418  -3.9254  -3.8796  -3.8759  -3.8754
    -3.8377  -3.8365

 ------ SPIN DOWN ----------


          k = 0.1667 0.2887 0.0000 ( 59267 PWs)   bands (ev):

   -72.5335 -70.7500 -44.2498 -44.0969 -43.6044 -42.3328 -42.1820 -42.1692
    -3.6981  -2.9982  -2.1685  -1.4745  -1.3135  -1.2279  -1.1247  -0.9560
    -0.8455  -0.5994

          k = 0.1667-0.4811 0.0000 ( 59291 PWs)   bands (ev):

   -72.5335 -70.7500 -44.2498 -44.0969 -43.6044 -42.3329 -42.1820 -42.1692
    -3.6900  -2.9992  -2.1747  -1.4736  -1.3138  -1.2296  -1.1278  -1.0237
    -0.9065  -0.5458

          k = 0.1667-0.0962 0.0000 ( 59226 PWs)   bands (ev):

   -72.5335 -70.7500 -44.2498 -44.0969 -43.6044 -42.3328 -42.1820 -42.1692
    -3.7061  -2.9973  -2.1609  -1.4752  -1.3132  -1.2261  -1.1278  -0.9107
    -0.7452  -0.6465

          k =-0.5000-0.8660 0.0000 ( 59292 PWs)   bands (ev):

   -72.5335 -70.7500 -44.2498 -44.0970 -43.6043 -42.3329 -42.1820 -42.1692
    -3.6427  -2.9929  -2.4629  -1.4732  -1.3167  -1.2272  -1.1289  -0.8500
    -0.5304  -0.4736

          k = 0.3333 0.0000 0.0000 ( 59267 PWs)   bands (ev):

   -72.5335 -70.7500 -44.2498 -44.0969 -43.6044 -42.3329 -42.1820 -42.1692
    -3.6684  -2.9942  -2.3701  -1.4740  -1.3155  -1.2263  -1.1317  -0.7788
    -0.5906  -0.5887

          k = 0.5000-0.0962 0.0000 ( 59291 PWs)   bands (ev):

   -72.5335 -70.7500 -44.2498 -44.0969 -43.6044 -42.3329 -42.1820 -42.1692
    -3.6427  -2.9929  -2.4621  -1.4731  -1.3167  -1.2272  -1.1333  -0.8603
    -0.5321  -0.4767

          k =-0.3333-0.3849 0.0000 ( 59291 PWs)   bands (ev):

   -72.5335 -70.7500 -44.2498 -44.0969 -43.6044 -42.3328 -42.1820 -42.1692
    -3.6594  -2.9956  -2.3782  -1.4733  -1.3157  -1.2280  -1.1291  -0.9167
    -0.5718  -0.5368

          k =-0.0000-0.1925 0.0000 ( 59226 PWs)   bands (ev):

   -72.5335 -70.7500 -44.2498 -44.0969 -43.6044 -42.3328 -42.1820 -42.1692
    -3.7196  -2.9988  -2.0216  -1.4758  -1.3121  -1.2270  -1.1355  -1.1105
    -0.8092  -0.6504

          k =-1.0000 0.0000 0.0000 ( 59292 PWs)   bands (ev):

   -72.5336 -70.7500 -44.2498 -44.0970 -43.6043 -42.3329 -42.1820 -42.1692
    -3.7041  -3.0004  -2.0346  -1.4737  -1.3128  -1.2303  -1.1256  -1.1228
    -1.0675  -0.5487

     the Fermi energy is    -2.8054 ev

!    total energy              =    -495.70241050 Ry

     total all-electron energy =     -4202.767768 Ry
     estimated scf accuracy    <       0.00000004 Ry
     smearing contrib. (-TS)   =      -0.00000000 Ry
     internal energy E=F+TS    =    -495.70241050 Ry

     The total energy is F=E-TS. E is the sum of the following terms:
     one-electron contribution =    -550.48239876 Ry
     hartree contribution      =     270.55179092 Ry
     xc contribution           =     -44.61559728 Ry
     ewald contribution        =     -22.78662219 Ry
     DFT-D3 Dispersion         =      -0.00761969 Ry
     one-center paw contrib.   =    -148.36196350 Ry

     total magnetization       =     8.00 Bohr mag/cell
     absolute magnetization    =     8.83 Bohr mag/cell

     convergence has been achieved in 306 iterations

     Writing output data file ./mytmp/2Cr0.3.save/
 
     init_run     :      4.07s CPU      4.58s WALL (       1 calls)
     electrons    :   1977.31s CPU   2241.49s WALL (       1 calls)

     Called by init_run:
     wfcinit      :      0.87s CPU      0.95s WALL (       1 calls)
     potinit      :      0.83s CPU      0.89s WALL (       1 calls)
     hinit0       :      0.78s CPU      0.87s WALL (       1 calls)

     Called by electrons:
     c_bands      :   1180.24s CPU   1281.39s WALL (     306 calls)
     sum_band     :    479.54s CPU    566.82s WALL (     306 calls)
     v_of_rho     :     93.67s CPU    105.15s WALL (     307 calls)
     newd         :    148.83s CPU    210.21s WALL (     307 calls)
     PAW_pot      :     40.23s CPU     42.31s WALL (     307 calls)
     mix_rho      :     23.54s CPU     24.03s WALL (     306 calls)

     Called by c_bands:
     init_us_2    :      9.21s CPU      9.69s WALL (   11034 calls)
     cegterg      :   1146.53s CPU   1246.09s WALL (    5544 calls)

     Called by *egterg:
     cdiaghg      :    146.40s CPU    194.66s WALL (   57081 calls)
     h_psi        :    771.98s CPU    805.40s WALL (   57099 calls)
     s_psi        :     18.48s CPU     19.03s WALL (   57099 calls)
     g_psi        :      2.91s CPU      3.14s WALL (   51537 calls)

     Called by h_psi:
     h_psi:calbec :     36.61s CPU     38.01s WALL (   57099 calls)
     vloc_psi     :    703.33s CPU    734.19s WALL (   57099 calls)
     add_vuspsi   :     27.42s CPU     28.40s WALL (   57099 calls)

     General routines
     calbec       :     41.64s CPU     43.25s WALL (   62607 calls)
     fft          :     80.18s CPU     87.29s WALL (    7669 calls)
     ffts         :      2.28s CPU      2.34s WALL (    1226 calls)
     fftw         :    677.58s CPU    706.49s WALL (  877308 calls)
     interpolate  :      8.44s CPU      8.65s WALL (     614 calls)
 
     Parallel routines
     fft_scatt_xy :    120.03s CPU    124.29s WALL (  886203 calls)
     fft_scatt_yz :    290.32s CPU    309.29s WALL (  886203 calls)
 
     PWSCF        :  33m 1.94s CPU  37m26.97s WALL

 
   This run was terminated on:  23:45:30  30Mar2021            

=------------------------------------------------------------------------------=
   JOB DONE.
=------------------------------------------------------------------------------=
